 Gaussian 16, Revision B.01,
 Gaussian 16:  ES64L-G16RevB.01 20-Dec-2017

 -------------------------------------
 #p SP mp2/aug-cc-pvtz density=current
 -------------------------------------

 -----
 title
 -----
 Symbolic Z-matrix:
 Charge =  0 Multiplicity = 1

                         Standard orientation:
 ---------------------------------------------------------------------
 Center     Atomic      Atomic             Coordinates (Angstroms)
 Number     Number       Type             X           Y           Z
 ---------------------------------------------------------------------
      1          1           0        2.248694    0.434365   -0.016704
      2          8           0        1.598472   -0.284044   -0.012946
      3          8           0        0.400450    0.541049    0.014577
      4          7           0       -0.663806   -0.456622    0.022437
      5          8           0       -1.699179    0.088244   -0.019176
 ---------------------------------------------------------------------

 SCF Done:  E(RHF) =  -279.501642729     A.U. after   14 cycles
 E2 =    -0.9450237392D+00 EUMP2 =    -0.28044666646840D+03

 The electronic state is 1-A.
 Alpha  occ. eigenvalues --  -20.69083 -20.68433 -20.65999 -15.81281  -1.62404
 Alpha  occ. eigenvalues --   -1.49573  -1.25440  -0.94807  -0.77277  -0.75917
 Alpha  occ. eigenvalues --   -0.71191  -0.67925  -0.62049  -0.58940  -0.48522
 Alpha  occ. eigenvalues --   -0.47250
 Alpha virt. eigenvalues --    0.02963   0.07162   0.08597   0.10172   0.13295
 Alpha virt. eigenvalues --    0.13492   0.14409   0.15454   0.17818   0.19415
 Alpha virt. eigenvalues --    0.19970   0.20647   0.22085   0.23496   0.23793

 Mulliken charges:
               1
     1  H    0.250300
     2  O   -0.201573
     3  O   -0.147318
     4  N    0.291701
     5  O   -0.193109
 Sum of Mulliken charges =  -0.00000

 Dipole moment (field-independent basis, Debye):
    X=              1.2171    Y=              0.7911    Z=             -0.0061  Tot=              1.4516
 Quadrupole moment (field-independent basis, Debye-Ang):
   XX=            -17.9889   YY=            -23.0931   ZZ=            -22.0123
   XY=              2.7913   XZ=             -0.0900   YZ=              0.0351

 Normal termination of Gaussian 16 at Mon Feb 14 22:14:34 2022.
