 Gaussian 16, Revision B.01,
 Gaussian 16:  ES64L-G16RevB.01 20-Dec-2017

 -------------------------------------
 #p SP mp2/aug-cc-pvtz density=current
 -------------------------------------

 -----
 title
 -----
 Symbolic Z-matrix:
 Charge =  0 Multiplicity = 1

                         Standard orientation:
 ---------------------------------------------------------------------
 Center     Atomic      Atomic             Coordinates (Angstroms)
 Number     Number       Type             X           Y           Z
 ---------------------------------------------------------------------
      1          1           0        1.532498    1.694413   -0.000000
      2          8           0        1.442147    0.729659   -0.000000
      3          8           0       -0.000000    0.673129    0.000000
      4          7           0       -0.254639   -0.763258    0.000000
      5          8           0       -1.410901   -0.946739    0.000000
 ---------------------------------------------------------------------

 SCF Done:  E(RHF) =  -279.502571864     A.U. after   14 cycles
 E2 =    -0.9440984118D+00 EUMP2 =    -0.28044667027590D+03

 The electronic state is 1-A'.
 Alpha  occ. eigenvalues --  -20.69022 -20.68409 -20.65898 -15.81259  -1.62441
 Alpha  occ. eigenvalues --   -1.50044  -1.25232  -0.94823  -0.77405  -0.76014
 Alpha  occ. eigenvalues --   -0.71289  -0.67942  -0.62157  -0.59098  -0.48310
 Alpha  occ. eigenvalues --   -0.47222
 Alpha virt. eigenvalues --    0.02965   0.07169   0.08622   0.10176   0.13395
 Alpha virt. eigenvalues --    0.13447   0.14414   0.15458   0.17823   0.19407
 Alpha virt. eigenvalues --    0.19976   0.20647   0.22193   0.23748   0.24075

 Mulliken charges:
               1
     1  H    0.249600
     2  O   -0.200244
     3  O   -0.146438
     4  N    0.290721
     5  O   -0.193640
 Sum of Mulliken charges =  -0.00000

 Dipole moment (field-independent basis, Debye):
    X=              0.5061    Y=              1.3714    Z=             -0.0000  Tot=              1.4618
 Quadrupole moment (field-independent basis, Debye-Ang):
   XX=            -22.5330   YY=            -18.5733   ZZ=            -21.9940
   XY=              3.2185   XZ=              0.0000   YZ=             -0.0000

 Normal termination of Gaussian 16 at Mon Feb 14 22:10:13 2022.
