 Gaussian 16, Revision B.01,
 Gaussian 16:  ES64L-G16RevB.01 20-Dec-2017

 -------------------------------------
 #p SP mp2/aug-cc-pvtz density=current
 -------------------------------------

 -----
 title
 -----
 Symbolic Z-matrix:
 Charge =  0 Multiplicity = 1

                         Standard orientation:
 ---------------------------------------------------------------------
 Center     Atomic      Atomic             Coordinates (Angstroms)
 Number     Number       Type             X           Y           Z
 ---------------------------------------------------------------------
      1          1           0        1.546846    1.699003    0.000000
      2          8           0        1.453948    0.734491    0.000000
      3          8           0        0.000000    0.681344    0.000000
      4          7           0       -0.261633   -0.772151   -0.000000
      5          8           0       -1.418375   -0.952578   -0.000000
 ---------------------------------------------------------------------

 SCF Done:  E(RHF) =  -279.499863550     A.U. after   14 cycles
 E2 =    -0.9468028499D+00 EUMP2 =    -0.28044666640020D+03

 The electronic state is 1-A'.
 Alpha  occ. eigenvalues --  -20.68857 -20.68783 -20.65777 -15.81575  -1.62335
 Alpha  occ. eigenvalues --   -1.49312  -1.24901  -0.94950  -0.77136  -0.75715
 Alpha  occ. eigenvalues --   -0.70885  -0.68029  -0.62134  -0.58845  -0.48331
 Alpha  occ. eigenvalues --   -0.47164
 Alpha virt. eigenvalues --    0.03012   0.06935   0.08560   0.10151   0.13385
 Alpha virt. eigenvalues --    0.13408   0.14446   0.15489   0.17865   0.19409
 Alpha virt. eigenvalues --    0.19972   0.20375   0.22129   0.23621   0.23717

 Mulliken charges:
               1
     1  H    0.250086
     2  O   -0.202829
     3  O   -0.158847
     4  N    0.296964
     5  O   -0.185374
 Sum of Mulliken charges =  -0.00000

 Dipole moment (field-independent basis, Debye):
    X=              0.4266    Y=              1.2558    Z=              0.0000  Tot=              1.3263
 Quadrupole moment (field-independent basis, Debye-Ang):
   XX=            -22.4382   YY=            -18.5385   ZZ=            -22.0362
   XY=              3.2900   XZ=             -0.0000   YZ=             -0.0000

 Normal termination of Gaussian 16 at Mon Feb 14 22:10:31 2022.
