 Gaussian 16, Revision B.01,
 Gaussian 16:  ES64L-G16RevB.01 20-Dec-2017

 -------------------------------------
 #p SP mp2/aug-cc-pvtz density=current
 -------------------------------------

 -----
 title
 -----
 Symbolic Z-matrix:
 Charge =  0 Multiplicity = 1

                         Standard orientation:
 ---------------------------------------------------------------------
 Center     Atomic      Atomic             Coordinates (Angstroms)
 Number     Number       Type             X           Y           Z
 ---------------------------------------------------------------------
      1          1           0        1.551426    1.675340    0.000000
      2          8           0        1.454173    0.711258    0.000000
      3          8           0       -0.000000    0.664677    0.000000
      4          7           0       -0.261630   -0.752081   -0.000000
      5          8           0       -1.419175   -0.927282   -0.000000
 ---------------------------------------------------------------------

 SCF Done:  E(RHF) =  -279.503343366     A.U. after   14 cycles
 E2 =    -0.9433228074D+00 EUMP2 =    -0.28044666617322D+03

 The electronic state is 1-A'.
 Alpha  occ. eigenvalues --  -20.69394 -20.67999 -20.66219 -15.80994  -1.62521
 Alpha  occ. eigenvalues --   -1.49821  -1.25987  -0.94676  -0.77426  -0.76138
 Alpha  occ. eigenvalues --   -0.71502  -0.67844  -0.61951  -0.59036  -0.48705
 Alpha  occ. eigenvalues --   -0.47318
 Alpha virt. eigenvalues --    0.02913   0.07401   0.08627   0.10191   0.13380
 Alpha virt. eigenvalues --    0.13404   0.14371   0.15418   0.17786   0.19420
 Alpha virt. eigenvalues --    0.19990   0.20859   0.22027   0.23461   0.23761

 Mulliken charges:
               1
     1  H    0.250409
     2  O   -0.200354
     3  O   -0.135276
     4  N    0.286348
     5  O   -0.201127
 Sum of Mulliken charges =   0.00000

 Dipole moment (field-independent basis, Debye):
    X=              0.5908    Y=              1.4641    Z=              0.0000  Tot=              1.5788
 Quadrupole moment (field-independent basis, Debye-Ang):
   XX=            -22.5002   YY=            -18.6921   ZZ=            -21.9843
   XY=              3.2218   XZ=              0.0000   YZ=             -0.0000

 Normal termination of Gaussian 16 at Mon Feb 14 22:10:50 2022.
