 Gaussian 16, Revision B.01,
 Gaussian 16:  ES64L-G16RevB.01 20-Dec-2017

 -------------------------------------
 #p SP mp2/aug-cc-pvtz density=current
 -------------------------------------

 -----
 title
 -----
 Symbolic Z-matrix:
 Charge =  0 Multiplicity = 1

                         Standard orientation:
 ---------------------------------------------------------------------
 Center     Atomic      Atomic             Coordinates (Angstroms)
 Number     Number       Type             X           Y           Z
 ---------------------------------------------------------------------
      1          1           0        1.546155    1.692022    0.000000
      2          8           0        1.453912    0.727447    0.000000
      3          8           0        0.000000    0.673313    0.000000
      4          7           0       -0.257456   -0.762573   -0.000000
      5          8           0       -1.421907   -0.945012   -0.000000
 ---------------------------------------------------------------------

 SCF Done:  E(RHF) =  -279.500241494     A.U. after   14 cycles
 E2 =    -0.9464097538D+00 EUMP2 =    -0.28044665124817D+03

 The electronic state is 1-A'.
 Alpha  occ. eigenvalues --  -20.69272 -20.68397 -20.66099 -15.81399  -1.61774
 Alpha  occ. eigenvalues --   -1.49555  -1.25520  -0.94916  -0.77192  -0.75711
 Alpha  occ. eigenvalues --   -0.71029  -0.67838  -0.61879  -0.58993  -0.48587
 Alpha  occ. eigenvalues --   -0.47404
 Alpha virt. eigenvalues --    0.02941   0.06923   0.08607   0.10172   0.13384
 Alpha virt. eigenvalues --    0.13411   0.14391   0.15434   0.17812   0.19426
 Alpha virt. eigenvalues --    0.19952   0.20635   0.22055   0.23477   0.23733

 Mulliken charges:
               1
     1  H    0.250531
     2  O   -0.200956
     3  O   -0.145430
     4  N    0.290850
     5  O   -0.194995
 Sum of Mulliken charges =  -0.00000

 Dipole moment (field-independent basis, Debye):
    X=              0.5376    Y=              1.3955    Z=              0.0000  Tot=              1.4955
 Quadrupole moment (field-independent basis, Debye-Ang):
   XX=            -22.5098   YY=            -18.6157   ZZ=            -22.0235
   XY=              3.2297   XZ=             -0.0000   YZ=              0.0000

 Normal termination of Gaussian 16 at Tue Feb  8 13:25:38 2022.
