 Gaussian 16, Revision B.01,
 Gaussian 16:  ES64L-G16RevB.01 20-Dec-2017

 -------------------------------------
 #p SP mp2/aug-cc-pvtz density=current
 -------------------------------------

 -----
 title
 -----
 Symbolic Z-matrix:
 Charge =  0 Multiplicity = 1

                         Standard orientation:
 ---------------------------------------------------------------------
 Center     Atomic      Atomic             Coordinates (Angstroms)
 Number     Number       Type             X           Y           Z
 ---------------------------------------------------------------------
      1          1           0        1.761653   -0.138344    0.000000
      2          8           0        0.901037   -0.586396    0.000000
      3          7           0        0.000000    0.521143   -0.000000
      4          8           0       -1.121244    0.147689   -0.000000
 ---------------------------------------------------------------------

 SCF Done:  E(RHF) =  -204.722532672     A.U. after   13 cycles
 E2 =    -0.6987899960D+00 EUMP2 =    -0.20542132266771D+03

 The electronic state is 1-A'.
 Alpha  occ. eigenvalues --  -20.66522 -20.64354 -15.79954  -1.59878  -1.40265
 Alpha  occ. eigenvalues --   -0.94944  -0.78314  -0.72878  -0.67983  -0.62493
 Alpha  occ. eigenvalues --   -0.52826  -0.46278
 Alpha virt. eigenvalues --    0.02785   0.07897   0.09408   0.09752   0.12890
 Alpha virt. eigenvalues --    0.14344   0.15690   0.17205   0.18717   0.19669
 Alpha virt. eigenvalues --    0.20544   0.23352   0.25774   0.29610   0.30724

 Mulliken charges:
               1
     1  H    0.272380
     2  O   -0.269323
     3  N    0.179336
     4  O   -0.182393
 Sum of Mulliken charges =   0.00000

 Dipole moment (field-independent basis, Debye):
    X=              1.7795    Y=              0.6523    Z=             -0.0000  Tot=              1.8953
 Quadrupole moment (field-independent basis, Debye-Ang):
   XX=            -13.6493   YY=            -18.6989   ZZ=            -16.4660
   XY=              0.5965   XZ=              0.0000   YZ=             -0.0000

 Normal termination of Gaussian 16 at Mon Jan 24 13:56:10 2022.
