 Gaussian 16, Revision B.01,
 Gaussian 16:  ES64L-G16RevB.01 20-Dec-2017

 -------------------------------------
 #p SP mp2/aug-cc-pvtz density=current
 -------------------------------------

 -----
 title
 -----
 Symbolic Z-matrix:
 Charge =  0 Multiplicity = 1

                         Standard orientation:
 ---------------------------------------------------------------------
 Center     Atomic      Atomic             Coordinates (Angstroms)
 Number     Number       Type             X           Y           Z
 ---------------------------------------------------------------------
      1          1           0        1.755437   -0.145792    0.000000
      2          8           0        0.898064   -0.589237    0.000000
      3          7           0       -0.000000    0.520715   -0.000000
      4          8           0       -1.117493    0.151836   -0.000000
 ---------------------------------------------------------------------

 SCF Done:  E(RHF) =  -204.723625436     A.U. after   13 cycles
 E2 =    -0.6977062921D+00 EUMP2 =    -0.20542133172771D+03

 The electronic state is 1-A'.
 Alpha  occ. eigenvalues --  -20.66542 -20.64198 -15.79888  -1.60297  -1.40376
 Alpha  occ. eigenvalues --   -0.94905  -0.78496  -0.72995  -0.68168  -0.62612
 Alpha  occ. eigenvalues --   -0.52876  -0.46189
 Alpha virt. eigenvalues --    0.02808   0.08036   0.09394   0.09753   0.12886
 Alpha virt. eigenvalues --    0.14396   0.15686   0.17214   0.18715   0.19656
 Alpha virt. eigenvalues --    0.20556   0.23350   0.25823   0.29653   0.30775

 Mulliken charges:
               1
     1  H    0.268280
     2  O   -0.266884
     3  N    0.179831
     4  O   -0.181227
 Sum of Mulliken charges =  -0.00000

 Dipole moment (field-independent basis, Debye):
    X=              1.7492    Y=              0.6552    Z=              0.0000  Tot=              1.8679
 Quadrupole moment (field-independent basis, Debye-Ang):
   XX=            -13.6689   YY=            -18.6936   ZZ=            -16.4514
   XY=              0.5772   XZ=             -0.0000   YZ=              0.0000

 Normal termination of Gaussian 16 at Mon Jan 24 13:32:14 2022.
