 Gaussian 16, Revision B.01,
 Gaussian 16:  ES64L-G16RevB.01 20-Dec-2017

 -------------------------------------
 #p SP mp2/aug-cc-pvtz density=current
 -------------------------------------

 -----
 title
 -----
 Symbolic Z-matrix:
 Charge =  0 Multiplicity = 1

                         Standard orientation:
 ---------------------------------------------------------------------
 Center     Atomic      Atomic             Coordinates (Angstroms)
 Number     Number       Type             X           Y           Z
 ---------------------------------------------------------------------
      1          1           0        1.763848   -0.142644   -0.000000
      2          8           0        0.897274   -0.590066   -0.000000
      3          7           0       -0.000000    0.520523   -0.000000
      4          8           0       -1.117755    0.152439    0.000000
 ---------------------------------------------------------------------

 SCF Done:  E(RHF) =  -204.723124828     A.U. after   13 cycles
 E2 =    -0.6982074811D+00 EUMP2 =    -0.20542133230933D+03

 The electronic state is 1-A'.
 Alpha  occ. eigenvalues --  -20.66520 -20.64278 -15.79864  -1.60261  -1.40153
 Alpha  occ. eigenvalues --   -0.94802  -0.78332  -0.72966  -0.68142  -0.62476
 Alpha  occ. eigenvalues --   -0.52838  -0.46162
 Alpha virt. eigenvalues --    0.02790   0.08054   0.09398   0.09759   0.12893
 Alpha virt. eigenvalues --    0.14333   0.15693   0.17212   0.18731   0.19664
 Alpha virt. eigenvalues --    0.20560   0.23343   0.25758   0.29615   0.30792

 Mulliken charges:
               1
     1  H    0.275860
     2  O   -0.274025
     3  N    0.179553
     4  O   -0.181389
 Sum of Mulliken charges =  -0.00000

 Dipole moment (field-independent basis, Debye):
    X=              1.7631    Y=              0.6560    Z=             -0.0000  Tot=              1.8812
 Quadrupole moment (field-independent basis, Debye-Ang):
   XX=            -13.6341   YY=            -18.7039   ZZ=            -16.4645
   XY=              0.5835   XZ=              0.0000   YZ=              0.0000

 Normal termination of Gaussian 16 at Mon Jan 24 13:32:22 2022.
