 Gaussian 16, Revision B.01,
 Gaussian 16:  ES64L-G16RevB.01 20-Dec-2017

 ------------------------------------------------------
 #p freq opt=(z-matrix) mp2/aug-cc-pvtz density=current
 ------------------------------------------------------

 -----
 title
 -----
 Symbolic Z-matrix:
 Charge =  0 Multiplicity = 1

 SCF Done:  E(RHF) =  -204.671693971     A.U. after   14 cycles
 E2 =    -0.7229498263D+00 EUMP2 =    -0.20539464379728D+03
 SCF Done:  E(RHF) =  -204.716357559     A.U. after   13 cycles
 E2 =    -0.7010676149D+00 EUMP2 =    -0.20541742517443D+03
 SCF Done:  E(RHF) =  -204.725753997     A.U. after   12 cycles
 E2 =    -0.6942468742D+00 EUMP2 =    -0.20542000087166D+03
 SCF Done:  E(RHF) =  -204.726538884     A.U. after   11 cycles
 E2 =    -0.6942534974D+00 EUMP2 =    -0.20542079238161D+03
 SCF Done:  E(RHF) =  -204.724032536     A.U. after   11 cycles
 E2 =    -0.6972004875D+00 EUMP2 =    -0.20542123302365D+03
 SCF Done:  E(RHF) =  -204.723952619     A.U. after   11 cycles
 E2 =    -0.6973889465D+00 EUMP2 =    -0.20542134156593D+03
 SCF Done:  E(RHF) =  -204.723299927     A.U. after   10 cycles
 E2 =    -0.6980540144D+00 EUMP2 =    -0.20542135394089D+03
 SCF Done:  E(RHF) =  -204.723397965     A.U. after    9 cycles
 E2 =    -0.6979566618D+00 EUMP2 =    -0.20542135462678D+03
 Optimization completed.
    -- Stationary point found.

 1\1\GINC-N2206\POpt\RMP2-FC\Aug-CC-pVTZ\H1N1O2\CGAVINH\18-Jan-2022\1\\
 #p freq opt=(z-matrix) mp2/aug-cc-pvtz density=current\\title\\0,1\H\O
 ,1,r1\N,2,r2,1,a1\O,3,r3,2,a2,1,d1,0\\r1=0.97026274\r2=1.42776435\r3=1
 .17680217\a1=101.62778541\a2=110.70859147\d1=180.\\Version=ES64L-G16Re
 vB.01\State=1-A'\HF=-204.723398\MP2=-205.4213546\RMSD=3.609e-09\RMSF=1
 .342e-04\Dipole=-0.6909259,0.2579279,0.\Quadrupole=1.9463323,-1.806144
 3,-0.140188,-0.4314757,0.,0.\PG=CS [SG(H1N1O2)]\\@

 Normal termination of Gaussian 16 at Tue Jan 18 15:48:22 2022.

 ----------------------------------------------------------------------
 #P Geom=AllCheck Guess=TCheck SCRF=Check GenChk RMP2(FC)/Aug-CC-pVTZ F
 req
 ----------------------------------------------------------------------

 Structure from the checkpoint file:  "/gscratch/ilahie/mccoygrp/coire_hoono/hono/hono_eq.chk"
 -----
 title
 -----
 Charge =  0 Multiplicity = 1

                         Standard orientation:
 ---------------------------------------------------------------------
 Center     Atomic      Atomic             Coordinates (Angstroms)
 Number     Number       Type             X           Y           Z
 ---------------------------------------------------------------------
      1          1           0       -1.759642   -0.144216   -0.000000
      2          8           0       -0.897669   -0.589652    0.000000
      3          7           0        0.000000    0.520619   -0.000000
      4          8           0        1.117625    0.152137    0.000000
 ---------------------------------------------------------------------

 SCF Done:  E(RHF) =  -204.723397965     A.U. after    1 cycles
 E2 =    -0.6979566648D+00 EUMP2 =    -0.20542135462977D+03
 E2 =    -0.6979566648D+00 EUMP2 =    -0.20542135462977D+03

 The electronic state is 1-A'.
 Alpha  occ. eigenvalues --  -20.66531 -20.64238 -15.79876  -1.60279  -1.40264
 Alpha  occ. eigenvalues --   -0.94853  -0.78414  -0.72980  -0.68155  -0.62544
 Alpha  occ. eigenvalues --   -0.52857  -0.46175
 Alpha virt. eigenvalues --    0.02799   0.08045   0.09396   0.09756   0.12889
 Alpha virt. eigenvalues --    0.14365   0.15689   0.17213   0.18723   0.19660
 Alpha virt. eigenvalues --    0.20558   0.23347   0.25791   0.29634   0.30784

 Mulliken charges:
               1
     1  H    0.272141
     2  O   -0.270519
     3  N    0.179684
     4  O   -0.181306
 Sum of Mulliken charges =  -0.00000

 Dipole moment (field-independent basis, Debye):
    X=             -1.7562    Y=              0.6556    Z=             -0.0000  Tot=              1.8745
 Quadrupole moment (field-independent basis, Debye-Ang):
   XX=            -13.6515   YY=            -18.6987   ZZ=            -16.4580
   XY=             -0.5803   XZ=              0.0000   YZ=              0.0000

  Exact polarizability:  29.167   3.588  18.979   0.000  -0.000  14.630
 Approx polarizability:  24.232   1.346  15.466   0.000  -0.000  12.685

                      1                      2                      3
                     A"                     A'                     A'
 Frequencies --    586.3643               602.1244               804.8883
 Red. masses --      1.1615                11.5316                 5.8520
 Frc consts  --      0.2353                 2.4633                 2.2337
 IR Inten    --     99.2665               196.5725               159.0446

                      4                      5                      6
                     A'                     A'                     A'
 Frequencies --   1283.4084              1661.3771              3754.9452
 Red. masses --      1.2781                10.0300                 1.0666
 Frc consts  --      1.2404                16.3112                 8.8606
 IR Inten    --    174.3520               109.3387                90.2983

 - Thermochemistry -
 -------------------
 Temperature   298.150 Kelvin.  Pressure   1.00000 Atm.
 Atom     1 has atomic number  1 and mass   1.00783

 Molecular mass:    47.00073 amu.
 Principal axes and moments of inertia in atomic units:
                           1         2         3
     Eigenvalues --    19.47980 143.61463 163.09442
           X            0.93622  -0.35141   0.00000
           Y            0.35141   0.93622   0.00000
           Z            0.00000  -0.00000   1.00000
 This molecule is an asymmetric top.
 Rotational symmetry number  1.
 Rotational temperatures (Kelvin)      4.44635     0.60310     0.53107
 Rotational constants (GHZ):          92.64682    12.56656    11.06562
 Zero-point vibrational energy      51996.3 (Joules/Mol)
                                   12.42742 (Kcal/Mol)
 Warning -- explicit consideration of   2 degrees of freedom as
           vibrations may cause significant error
 Vibrational temperatures:    843.65   866.32  1158.05  1846.54  2390.35
          (Kelvin)           5402.53

 Zero-point correction=                           0.019804 (Hartree/Particle)
 Thermal correction to Energy=                    0.023055
 Thermal correction to Enthalpy=                  0.023999
 Thermal correction to Gibbs Free Energy=        -0.004213
 Sum of electronic and zero-point Energies=           -205.401550
 Sum of electronic and thermal Energies=              -205.398300
 Sum of electronic and thermal Enthalpies=            -205.397356
 Sum of electronic and thermal Free Energies=         -205.425567

                     E (Thermal)             CV                S
                      KCal/Mol        Cal/Mol-Kelvin    Cal/Mol-Kelvin
 Total                   14.467              8.891             59.376
 Electronic               0.000              0.000              0.000
 Translational            0.889              2.981             37.467
 Rotational               0.889              2.981             20.750
 Vibrational             12.690              2.929              1.158
 Vibration     1          0.943              1.061              0.474
 Vibration     2          0.960              1.027              0.446

 Optimization completed.
    -- Stationary point found.

 1\1\GINC-N2206\Freq\RMP2-FC\Aug-CC-pVTZ\H1N1O2\CGAVINH\18-Jan-2022\1\\
 #P Geom=AllCheck Guess=TCheck SCRF=Check GenChk RMP2(FC)/Aug-CC-pVTZ F
 req\\title\\0,1\H\O,1,r1\N,2,r2,1,a1\O,3,r3,2,a2,1,d1,0\\r1=0.97026274
 \r2=1.42776435\r3=1.17680217\a1=101.62778541\a2=110.70859147\d1=180.\\
 Version=ES64L-G16RevB.01\State=1-A'\HF=-204.723398\MP2=-205.4213546\RM
 SD=5.354e-10\RMSF=1.342e-04\ZeroPoint=0.0198044\Thermal=0.0230548\Dipo
 le=-0.0880546,0.,-0.7322238\DipoleDeriv=0.2456182,0.,0.0540735,0.,0.33
 29225,0.,0.08954,0.,0.2684766,-1.4261323,0.,-0.860809,0.,-0.3060865,0.

 Normal termination of Gaussian 16 at Tue Jan 18 15:49:58 2022.
