 Gaussian 16, Revision B.01,
 Gaussian 16:  ES64L-G16RevB.01 20-Dec-2017

 -------------------------------------
 #p SP mp2/aug-cc-pvtz density=current
 -------------------------------------

 -----
 title
 -----
 Symbolic Z-matrix:
 Charge =  0 Multiplicity = 1

                         Standard orientation:
 ---------------------------------------------------------------------
 Center     Atomic      Atomic             Coordinates (Angstroms)
 Number     Number       Type             X           Y           Z
 ---------------------------------------------------------------------
      1          1           0        1.757611   -0.150088   -0.000000
      2          8           0        0.894286   -0.592898   -0.000000
      3          7           0       -0.000000    0.520099    0.000000
      4          8           0       -1.113987    0.156572    0.000000
 ---------------------------------------------------------------------

 SCF Done:  E(RHF) =  -204.724186224     A.U. after   13 cycles
 E2 =    -0.6971292212D+00 EUMP2 =    -0.20542131544546D+03

 The electronic state is 1-A'.
 Alpha  occ. eigenvalues --  -20.66540 -20.64121 -15.79797  -1.60687  -1.40259
 Alpha  occ. eigenvalues --   -0.94763  -0.78517  -0.73083  -0.68333  -0.62593
 Alpha  occ. eigenvalues --   -0.52884  -0.46072
 Alpha virt. eigenvalues --    0.02813   0.08192   0.09384   0.09759   0.12889
 Alpha virt. eigenvalues --    0.14385   0.15688   0.17220   0.18729   0.19651
 Alpha virt. eigenvalues --    0.20573   0.23341   0.25807   0.29658   0.30844

 Mulliken charges:
               1
     1  H    0.271892
     2  O   -0.271725
     3  N    0.179999
     4  O   -0.180166
 Sum of Mulliken charges =  -0.00000

 Dipole moment (field-independent basis, Debye):
    X=              1.7324    Y=              0.6591    Z=             -0.0000  Tot=              1.8536
 Quadrupole moment (field-independent basis, Debye-Ang):
   XX=            -13.6536   YY=            -18.6986   ZZ=            -16.4499
   XY=              0.5642   XZ=              0.0000   YZ=             -0.0000

 Normal termination of Gaussian 16 at Mon Jan 24 13:56:01 2022.
