 Gaussian 16, Revision B.01,
 Gaussian 16:  ES64L-G16RevB.01 20-Dec-2017

 -------------------------------------
 #p SP mp2/aug-cc-pvtz density=current
 -------------------------------------

 -----
 title
 -----
 Symbolic Z-matrix:
 Charge =  0 Multiplicity = 1

                         Standard orientation:
 ---------------------------------------------------------------------
 Center     Atomic      Atomic             Coordinates (Angstroms)
 Number     Number       Type             X           Y           Z
 ---------------------------------------------------------------------
      1          1           0        1.550810    1.691489    0.000000
      2          8           0        1.454145    0.727347    0.000000
      3          8           0       -0.000000    0.679881    0.000000
      4          7           0       -0.264038   -0.754808   -0.000000
      5          8           0       -1.416963   -0.958208   -0.000000
 ---------------------------------------------------------------------

 SCF Done:  E(RHF) =  -279.501446659     A.U. after   14 cycles
 E2 =    -0.9451519618D+00 EUMP2 =    -0.28044659862123D+03

 The electronic state is 1-A'.
 Alpha  occ. eigenvalues --  -20.69145 -20.68477 -20.66083 -15.81235  -1.62292
 Alpha  occ. eigenvalues --   -1.49673  -1.25549  -0.94772  -0.77350  -0.75873
 Alpha  occ. eigenvalues --   -0.71154  -0.67972  -0.62098  -0.59059  -0.48586
 Alpha  occ. eigenvalues --   -0.47080
 Alpha virt. eigenvalues --    0.02952   0.07225   0.08567   0.10173   0.13403
 Alpha virt. eigenvalues --    0.13403   0.14403   0.15462   0.17811   0.19423
 Alpha virt. eigenvalues --    0.19976   0.20609   0.22081   0.23409   0.23720

 Mulliken charges:
               1
     1  H    0.250298
     2  O   -0.198674
     3  O   -0.149023
     4  N    0.290169
     5  O   -0.192769
 Sum of Mulliken charges =  -0.00000

 Dipole moment (field-independent basis, Debye):
    X=              0.5039    Y=              1.3781    Z=              0.0000  Tot=              1.4673
 Quadrupole moment (field-independent basis, Debye-Ang):
   XX=            -22.4255   YY=            -18.6247   ZZ=            -22.0172
   XY=              3.2893   XZ=              0.0000   YZ=              0.0000

 Normal termination of Gaussian 16 at Mon Feb 14 13:10:50 2022.
