 Gaussian 16, Revision B.01,
 Gaussian 16:  ES64L-G16RevB.01 20-Dec-2017

 -------------------------------------
 #p SP mp2/aug-cc-pvtz density=current
 -------------------------------------

 -----
 title
 -----
 Symbolic Z-matrix:
 Charge =  0 Multiplicity = 1

                         Standard orientation:
 ---------------------------------------------------------------------
 Center     Atomic      Atomic             Coordinates (Angstroms)
 Number     Number       Type             X           Y           Z
 ---------------------------------------------------------------------
      1          1           0        1.513191    1.692308   -0.000000
      2          8           0        1.453982    0.725144   -0.000000
      3          8           0        0.000000    0.672923   -0.000000
      4          7           0       -0.259346   -0.762622    0.000000
      5          8           0       -1.416203   -0.942311    0.000000
 ---------------------------------------------------------------------

 SCF Done:  E(RHF) =  -279.501255504     A.U. after   14 cycles
 E2 =    -0.9453456845D+00 EUMP2 =    -0.28044660118845D+03

 The electronic state is 1-A'.
 Alpha  occ. eigenvalues --  -20.69067 -20.68427 -20.66076 -15.81279  -1.62413
 Alpha  occ. eigenvalues --   -1.49703  -1.25410  -0.94819  -0.77383  -0.75787
 Alpha  occ. eigenvalues --   -0.71203  -0.67879  -0.62082  -0.59130  -0.48548
 Alpha  occ. eigenvalues --   -0.47253
 Alpha virt. eigenvalues --    0.02986   0.07158   0.08592   0.10164   0.13385
 Alpha virt. eigenvalues --    0.13408   0.14412   0.15464   0.17819   0.19396
 Alpha virt. eigenvalues --    0.19963   0.20641   0.22070   0.23533   0.23735

 Mulliken charges:
               1
     1  H    0.253182
     2  O   -0.201862
     3  O   -0.148810
     4  N    0.290923
     5  O   -0.193432
 Sum of Mulliken charges =  -0.00000

 Dipole moment (field-independent basis, Debye):
    X=              0.4609    Y=              1.3565    Z=             -0.0000  Tot=              1.4327
 Quadrupole moment (field-independent basis, Debye-Ang):
   XX=            -22.6379   YY=            -18.5965   ZZ=            -22.0069
   XY=              3.1339   XZ=              0.0000   YZ=              0.0000

 Normal termination of Gaussian 16 at Mon Feb 14 13:06:17 2022.
