 Gaussian 16, Revision B.01,
 Gaussian 16:  ES64L-G16RevB.01 20-Dec-2017

 -------------------------------------
 #p SP mp2/aug-cc-pvtz density=current
 -------------------------------------

 -----
 title
 -----
 Symbolic Z-matrix:
 Charge =  0 Multiplicity = 1

                         Standard orientation:
 ---------------------------------------------------------------------
 Center     Atomic      Atomic             Coordinates (Angstroms)
 Number     Number       Type             X           Y           Z
 ---------------------------------------------------------------------
      1          1           0        1.547624    1.682589    0.000000
      2          8           0        1.453989    0.718148    0.000000
      3          8           0       -0.000000    0.666113    0.000000
      4          7           0       -0.259529   -0.769399   -0.000000
      5          8           0       -1.420354   -0.921360   -0.000000
 ---------------------------------------------------------------------

 SCF Done:  E(RHF) =  -279.501627458     A.U. after   14 cycles
 E2 =    -0.9449699895D+00 EUMP2 =    -0.28044659744746D+03

 The electronic state is 1-A'.
 Alpha  occ. eigenvalues --  -20.69031 -20.68381 -20.65909 -15.81330  -1.62519
 Alpha  occ. eigenvalues --   -1.49472  -1.25328  -0.94843  -0.77202  -0.75966
 Alpha  occ. eigenvalues --   -0.71206  -0.67901  -0.61991  -0.58821  -0.48457
 Alpha  occ. eigenvalues --   -0.47411
 Alpha virt. eigenvalues --    0.02974   0.07109   0.08621   0.10169   0.13388
 Alpha virt. eigenvalues --    0.13388   0.14415   0.15443   0.17840   0.19411
 Alpha virt. eigenvalues --    0.19986   0.20661   0.22079   0.23678   0.23757

 Mulliken charges:
               1
     1  H    0.250175
     2  O   -0.204574
     3  O   -0.145177
     4  N    0.293325
     5  O   -0.193748
 Sum of Mulliken charges =  -0.00000

 Dipole moment (field-independent basis, Debye):
    X=              0.5115    Y=              1.3424    Z=              0.0000  Tot=              1.4365
 Quadrupole moment (field-independent basis, Debye-Ang):
   XX=            -22.5126   YY=            -18.6072   ZZ=            -22.0035
   XY=              3.2223   XZ=             -0.0000   YZ=             -0.0000

 Normal termination of Gaussian 16 at Mon Feb 14 13:10:14 2022.
