 Gaussian 16, Revision B.01,
 Gaussian 16:  ES64L-G16RevB.01 20-Dec-2017

 -------------------------------------
 #p SP mp2/aug-cc-pvtz density=current
 -------------------------------------

 -----
 title
 -----
 Symbolic Z-matrix:
 Charge =  0 Multiplicity = 1

                         Standard orientation:
 ---------------------------------------------------------------------
 Center     Atomic      Atomic             Coordinates (Angstroms)
 Number     Number       Type             X           Y           Z
 ---------------------------------------------------------------------
      1          1           0        1.581546    1.648686    0.000000
      2          8           0        1.454918    0.688020    0.000000
      3          8           0        0.000000    0.685838    0.000000
      4          7           0       -0.264089   -0.748842   -0.000000
      5          8           0       -1.421533   -0.924707   -0.000000
 ---------------------------------------------------------------------

 SCF Done:  E(RHF) =  -279.501371872     A.U. after   14 cycles
 E2 =    -0.9452239227D+00 EUMP2 =    -0.28044659579504D+03

 The electronic state is 1-A'.
 Alpha  occ. eigenvalues --  -20.69131 -20.68390 -20.65938 -15.81229  -1.62410
 Alpha  occ. eigenvalues --   -1.49626  -1.25352  -0.94844  -0.77421  -0.75843
 Alpha  occ. eigenvalues --   -0.71206  -0.67654  -0.61996  -0.59074  -0.48536
 Alpha  occ. eigenvalues --   -0.47287
 Alpha virt. eigenvalues --    0.02962   0.07189   0.08591   0.10124   0.13411
 Alpha virt. eigenvalues --    0.13416   0.14430   0.15508   0.17818   0.19395
 Alpha virt. eigenvalues --    0.19964   0.20639   0.22110   0.23554   0.23753

 Mulliken charges:
               1
     1  H    0.247643
     2  O   -0.197571
     3  O   -0.150027
     4  N    0.294758
     5  O   -0.194804
 Sum of Mulliken charges =  -0.00000

 Dipole moment (field-independent basis, Debye):
    X=              0.5521    Y=              1.3452    Z=              0.0000  Tot=              1.4541
 Quadrupole moment (field-independent basis, Debye-Ang):
   XX=            -22.2827   YY=            -18.7968   ZZ=            -22.0069
   XY=              3.3074   XZ=             -0.0000   YZ=             -0.0000

 Normal termination of Gaussian 16 at Mon Feb 14 13:08:20 2022.
