 Gaussian 16, Revision B.01,
 Gaussian 16:  ES64L-G16RevB.01 20-Dec-2017

 -------------------------------------
 #p SP mp2/aug-cc-pvtz density=current
 -------------------------------------

 -----
 title
 -----
 Symbolic Z-matrix:
 Charge =  0 Multiplicity = 1

                         Standard orientation:
 ---------------------------------------------------------------------
 Center     Atomic      Atomic             Coordinates (Angstroms)
 Number     Number       Type             X           Y           Z
 ---------------------------------------------------------------------
      1          1           0        1.545922    1.703860   -0.000000
      2          8           0        1.453899    0.739264   -0.000000
      3          8           0       -0.000000    0.684798   -0.000000
      4          7           0       -0.261633   -0.776303    0.000000
      5          8           0       -1.418211   -0.957779    0.000000
 ---------------------------------------------------------------------

 SCF Done:  E(RHF) =  -279.499063732     A.U. after   14 cycles
 E2 =    -0.9475384945D+00 EUMP2 =    -0.28044660222639D+03

 The electronic state is 1-A'.
 Alpha  occ. eigenvalues --  -20.69033 -20.68656 -20.65685 -15.81696  -1.62320
 Alpha  occ. eigenvalues --   -1.49199  -1.24679  -0.95014  -0.77079  -0.75636
 Alpha  occ. eigenvalues --   -0.70772  -0.68066  -0.62167  -0.58803  -0.48249
 Alpha  occ. eigenvalues --   -0.47123
 Alpha virt. eigenvalues --    0.03033   0.06839   0.08545   0.10141   0.13381
 Alpha virt. eigenvalues --    0.13412   0.14461   0.15504   0.17882   0.19403
 Alpha virt. eigenvalues --    0.19968   0.20254   0.22147   0.23651   0.23709

 Mulliken charges:
               1
     1  H    0.250006
     2  O   -0.203342
     3  O   -0.163620
     4  N    0.299067
     5  O   -0.182110
 Sum of Mulliken charges =  -0.00000

 Dipole moment (field-independent basis, Debye):
    X=              0.3931    Y=              1.2120    Z=             -0.0000  Tot=              1.2742
 Quadrupole moment (field-independent basis, Debye-Ang):
   XX=            -22.4255   YY=            -18.5062   ZZ=            -22.0468
   XY=              3.3041   XZ=              0.0000   YZ=              0.0000

 Normal termination of Gaussian 16 at Mon Feb 14 13:08:01 2022.
