 Gaussian 16, Revision B.01,
 Gaussian 16:  ES64L-G16RevB.01 20-Dec-2017

 -------------------------------------
 #p SP mp2/aug-cc-pvtz density=current
 -------------------------------------

 -----
 title
 -----
 Symbolic Z-matrix:
 Charge =  0 Multiplicity = 1

                         Standard orientation:
 ---------------------------------------------------------------------
 Center     Atomic      Atomic             Coordinates (Angstroms)
 Number     Number       Type             X           Y           Z
 ---------------------------------------------------------------------
      1          1           0        1.547857    1.675517    0.000000
      2          8           0        1.454060    0.723374    0.000000
      3          8           0        0.000000    0.673389   -0.000000
      4          7           0       -0.261552   -0.761756    0.000000
      5          8           0       -1.418684   -0.939667   -0.000000
 ---------------------------------------------------------------------

 SCF Done:  E(RHF) =  -279.502130192     A.U. after   14 cycles
 E2 =    -0.9444640323D+00 EUMP2 =    -0.28044659422464D+03

 The electronic state is 1-A'.
 Alpha  occ. eigenvalues --  -20.69121 -20.68453 -20.65901 -15.81309  -1.62432
 Alpha  occ. eigenvalues --   -1.49729  -1.25683  -0.94835  -0.77384  -0.76015
 Alpha  occ. eigenvalues --   -0.71208  -0.68122  -0.62083  -0.59002  -0.48565
 Alpha  occ. eigenvalues --   -0.47284
 Alpha virt. eigenvalues --    0.02986   0.07148   0.08589   0.10168   0.13387
 Alpha virt. eigenvalues --    0.13393   0.14457   0.15500   0.17808   0.19414
 Alpha virt. eigenvalues --    0.19977   0.20637   0.22077   0.23508   0.23726

 Mulliken charges:
               1
     1  H    0.239750
     2  O   -0.191105
     3  O   -0.147946
     4  N    0.292570
     5  O   -0.193268
 Sum of Mulliken charges =  -0.00000

 Dipole moment (field-independent basis, Debye):
    X=              0.5017    Y=              1.3451    Z=              0.0000  Tot=              1.4356
 Quadrupole moment (field-independent basis, Debye-Ang):
   XX=            -22.4636   YY=            -18.6630   ZZ=            -21.9949
   XY=              3.2318   XZ=             -0.0000   YZ=             -0.0000

 Normal termination of Gaussian 16 at Mon Feb 14 13:09:39 2022.
