 Gaussian 16, Revision B.01,
 Gaussian 16:  ES64L-G16RevB.01 20-Dec-2017

 -------------------------------------
 #p SP mp2/aug-cc-pvtz density=current
 -------------------------------------

 -----
 title
 -----
 Symbolic Z-matrix:
 Charge =  0 Multiplicity = 1

                         Standard orientation:
 ---------------------------------------------------------------------
 Center     Atomic      Atomic             Coordinates (Angstroms)
 Number     Number       Type             X           Y           Z
 ---------------------------------------------------------------------
      1          1           0        1.584892    1.680845   -0.000000
      2          8           0        1.454141    0.720731   -0.000000
      3          8           0        0.000000    0.673134    0.000000
      4          7           0       -0.263909   -0.761579    0.000000
      5          8           0       -1.421332   -0.937589    0.000000
 ---------------------------------------------------------------------

 SCF Done:  E(RHF) =  -279.501806608     A.U. after   14 cycles
 E2 =    -0.9447883385D+00 EUMP2 =    -0.28044659494681D+03

 The electronic state is 1-A'.
 Alpha  occ. eigenvalues --  -20.69116 -20.68437 -20.65910 -15.81291  -1.62398
 Alpha  occ. eigenvalues --   -1.49451  -1.25469  -0.94801  -0.77184  -0.76048
 Alpha  occ. eigenvalues --   -0.71160  -0.67986  -0.62010  -0.58748  -0.48497
 Alpha  occ. eigenvalues --   -0.47250
 Alpha virt. eigenvalues --    0.02941   0.07173   0.08595   0.10179   0.13375
 Alpha virt. eigenvalues --    0.13406   0.14410   0.15443   0.17832   0.19437
 Alpha virt. eigenvalues --    0.19998   0.20626   0.22089   0.23540   0.23740

 Mulliken charges:
               1
     1  H    0.247710
     2  O   -0.201743
     3  O   -0.145516
     4  N    0.292567
     5  O   -0.193018
 Sum of Mulliken charges =   0.00000

 Dipole moment (field-independent basis, Debye):
    X=              0.5544    Y=              1.3622    Z=              0.0000  Tot=              1.4707
 Quadrupole moment (field-independent basis, Debye-Ang):
   XX=            -22.2946   YY=            -18.6437   ZZ=            -22.0138
   XY=              3.3736   XZ=              0.0000   YZ=             -0.0000

 Normal termination of Gaussian 16 at Mon Feb 14 13:07:19 2022.
