 Gaussian 16, Revision B.01,
 Gaussian 16:  ES64L-G16RevB.01 20-Dec-2017

 -------------------------------------
 #p SP mp2/aug-cc-pvtz density=current
 -------------------------------------

 -----
 title
 -----
 Symbolic Z-matrix:
 Charge =  0 Multiplicity = 1

                         Standard orientation:
 ---------------------------------------------------------------------
 Center     Atomic      Atomic             Coordinates (Angstroms)
 Number     Number       Type             X           Y           Z
 ---------------------------------------------------------------------
      1          1           0        1.572554    1.676826    0.000000
      2          8           0        1.470862    0.713201    0.000000
      3          8           0        0.000000    0.672866    0.000000
      4          7           0       -0.271516   -0.760428   -0.000000
      5          8           0       -1.429855   -0.930296   -0.000000
 ---------------------------------------------------------------------

 SCF Done:  E(RHF) =  -279.500188243     A.U. after   14 cycles
 E2 =    -0.9464064350D+00 EUMP2 =    -0.28044659467849D+03

 The electronic state is 1-A'.
 Alpha  occ. eigenvalues --  -20.69181 -20.68458 -20.66140 -15.81315  -1.62358
 Alpha  occ. eigenvalues --   -1.48930  -1.25733  -0.94784  -0.77109  -0.75788
 Alpha  occ. eigenvalues --   -0.71037  -0.67938  -0.61889  -0.58710  -0.48813
 Alpha  occ. eigenvalues --   -0.47286
 Alpha virt. eigenvalues --    0.02959   0.07165   0.08551   0.10164   0.13308
 Alpha virt. eigenvalues --    0.13397   0.14399   0.15446   0.17829   0.19433
 Alpha virt. eigenvalues --    0.19987   0.20616   0.21752   0.22982   0.23725

 Mulliken charges:
               1
     1  H    0.251201
     2  O   -0.203574
     3  O   -0.147974
     4  N    0.293066
     5  O   -0.192719
 Sum of Mulliken charges =   0.00000

 Dipole moment (field-independent basis, Debye):
    X=              0.5113    Y=              1.3462    Z=             -0.0000  Tot=              1.4400
 Quadrupole moment (field-independent basis, Debye-Ang):
   XX=            -22.3783   YY=            -18.6764   ZZ=            -22.0332
   XY=              3.3072   XZ=             -0.0000   YZ=              0.0000

 Normal termination of Gaussian 16 at Mon Feb 14 13:05:59 2022.
