 Gaussian 16, Revision B.01,
 Gaussian 16:  ES64L-G16RevB.01 20-Dec-2017

 ------------------------------------------------------
 #p freq opt=(z-matrix) mp2/aug-cc-pvtz density=current
 ------------------------------------------------------

 -----
 title
 -----
 Symbolic Z-matrix:
 Charge =  0 Multiplicity = 1

 SCF Done:  E(RHF) =  -279.505602155     A.U. after   14 cycles
 E2 =    -0.9495147319D+00 EUMP2 =    -0.28045511688643D+03
 SCF Done:  E(RHF) =  -279.506105687     A.U. after   10 cycles
 E2 =    -0.9491033205D+00 EUMP2 =    -0.28045520900748D+03
 SCF Done:  E(RHF) =  -279.506486841     A.U. after   11 cycles
 E2 =    -0.9487369895D+00 EUMP2 =    -0.28045522383048D+03
 SCF Done:  E(RHF) =  -279.506538911     A.U. after   10 cycles
 E2 =    -0.9486896303D+00 EUMP2 =    -0.28045522854175D+03
 SCF Done:  E(RHF) =  -279.506428994     A.U. after    9 cycles
 E2 =    -0.9488112547D+00 EUMP2 =    -0.28045524024895D+03
 Optimization completed.
    -- Stationary point found.

 1\1\GINC-N2398\POpt\RMP2-FC\Aug-CC-pVTZ\H1N1O3\CGAVINH\06-Mar-2022\1\\
 #p freq opt=(z-matrix) mp2/aug-cc-pvtz density=current\\title\\0,1\H\O
 ,1,r1\O,2,r2,1,a1\N,3,r3,2,a2,1,d1,0\O,4,r4,3,a3,2,d2,0\\r1=0.98537664
 \r2=1.42673666\r3=1.38110764\r4=1.19478846\a1=100.6355057\a2=113.13777
 052\a3=114.33392022\d1=0.\d2=0.\\Version=ES64L-G16RevB.01\State=1-A'\H
 F=-279.506429\MP2=-280.4552402\RMSD=5.821e-09\RMSF=1.972e-04\Dipole=0.
 0203709,-0.4304109,0.\Quadrupole=-0.4663497,-0.1417924,0.6081421,-1.46
 77852,0.,0.\PG=CS [SG(H1N1O3)]\\@

 Normal termination of Gaussian 16 at Sun Mar  6 18:03:33 2022.

 ----------------------------------------------------------------------
 #P Geom=AllCheck Guess=TCheck SCRF=Check GenChk RMP2(FC)/Aug-CC-pVTZ F
 req
 ----------------------------------------------------------------------

 Structure from the checkpoint file:  "hoono_eq.chk"
 -----
 title
 -----
 Charge =  0 Multiplicity = 1

                         Standard orientation:
 ---------------------------------------------------------------------
 Center     Atomic      Atomic             Coordinates (Angstroms)
 Number     Number       Type             X           Y           Z
 ---------------------------------------------------------------------
      1          1           0        1.109192   -0.597995   -0.000000
      2          8           0        1.315829    0.365472   -0.000000
      3          8           0       -0.000000    0.916988    0.000000
      4          7           0       -0.991445   -0.044518    0.000000
      5          8           0       -0.586964   -1.168758    0.000000
 ---------------------------------------------------------------------

 SCF Done:  E(RHF) =  -279.506428994     A.U. after    1 cycles
 E2 =    -0.9488112553D+00 EUMP2 =    -0.28045524024954D+03
 E2 =    -0.9488112553D+00 EUMP2 =    -0.28045524024954D+03

 The electronic state is 1-A'.
 Alpha  occ. eigenvalues --  -20.71980 -20.68726 -20.66829 -15.82602  -1.64429
 Alpha  occ. eigenvalues --   -1.50516  -1.29378  -0.96035  -0.83471  -0.75893
 Alpha  occ. eigenvalues --   -0.73997  -0.63737  -0.61875  -0.61838  -0.50471
 Alpha  occ. eigenvalues --   -0.49751
 Alpha virt. eigenvalues --    0.03507   0.06025   0.09512   0.10038   0.11972
 Alpha virt. eigenvalues --    0.12260   0.14932   0.15204   0.17753   0.18034
 Alpha virt. eigenvalues --    0.18978   0.21101   0.21671   0.24254   0.24635

 Mulliken charges:
               1
     1  H    0.277920
     2  O   -0.274195
     3  O    0.037897
     4  N    0.154053
     5  O   -0.195674
 Sum of Mulliken charges =   0.00000

 Dipole moment (field-independent basis, Debye):
    X=              0.0518    Y=             -1.0940    Z=             -0.0000  Tot=              1.0952
 Quadrupole moment (field-independent basis, Debye-Ang):
   XX=            -23.3786   YY=            -22.9421   ZZ=            -21.9334
   XY=             -1.9742   XZ=              0.0000   YZ=             -0.0000

  Exact polarizability:  30.922   4.142  29.856  -0.000   0.000  17.619
 Approx polarizability:  24.562   0.519  27.660  -0.000   0.000  15.515

                      1                      2                      3
                     A"                     A'                     A"
 Frequencies --    353.7138               397.1973               523.4910
 Red. masses --      1.5565                 7.0609                 2.9112
 Frc consts  --      0.1147                 0.6563                 0.4700
 IR Inten    --     62.8190                 7.7715                25.4889

                      4                      5                      6
                     A'                     A'                     A'
 Frequencies --    711.4243               836.8789               970.9862
 Red. masses --     13.3381                12.3779                 9.7631
 Frc consts  --      3.9774                 5.1077                 5.4233
 IR Inten    --    217.2106                30.7774                12.7511

                      7                      8                      9
                     A'                     A'                     A'
 Frequencies --   1433.9271              1570.3953              3487.5425
 Red. masses --      1.3057                 6.4038                 1.0638
 Frc consts  --      1.5818                 9.3047                 7.6231
 IR Inten    --     79.9552               150.2819                42.7389

 - Thermochemistry -
 -------------------
 Temperature   298.150 Kelvin.  Pressure   1.00000 Atm.
 Atom     1 has atomic number  1 and mass   1.00783

 Molecular mass:    62.99564 amu.
 Principal axes and moments of inertia in atomic units:
                           1         2         3
     Eigenvalues --    84.52793 222.60847 307.13640
           X            0.79632  -0.60488   0.00000
           Y            0.60488   0.79632   0.00000
           Z           -0.00000   0.00000   1.00000
 This molecule is an asymmetric top.
 Rotational symmetry number  1.
 Rotational temperatures (Kelvin)      1.02468     0.38909     0.28200
 Rotational constants (GHZ):          21.35083     8.10724     5.87603
 Zero-point vibrational energy      61521.3 (Joules/Mol)
                                   14.70394 (Kcal/Mol)
 Warning -- explicit consideration of   3 degrees of freedom as
           vibrations may cause significant error
 Vibrational temperatures:    508.92   571.48   753.19  1023.58  1204.08
          (Kelvin)           1397.03  2063.10  2259.45  5017.80

 Zero-point correction=                           0.023432 (Hartree/Particle)
 Thermal correction to Energy=                    0.027369
 Thermal correction to Enthalpy=                  0.028313
 Thermal correction to Gibbs Free Energy=        -0.002542
 Sum of electronic and zero-point Energies=           -280.431808
 Sum of electronic and thermal Energies=              -280.427871
 Sum of electronic and thermal Enthalpies=            -280.426927
 Sum of electronic and thermal Free Energies=         -280.457782

                     E (Thermal)             CV                S
                      KCal/Mol        Cal/Mol-Kelvin    Cal/Mol-Kelvin
 Total                   17.174             12.166             64.940
 Electronic               0.000              0.000              0.000
 Translational            0.889              2.981             38.341
 Rotational               0.889              2.981             23.273
 Vibrational             15.397              6.204              3.326
 Vibration     1          0.730              1.568              1.150
 Vibration     2          0.764              1.476              0.973
 Vibration     3          0.878              1.198              0.602

                       ! Non-Optimized Parameters !

 1\1\GINC-N2398\Freq\RMP2-FC\Aug-CC-pVTZ\H1N1O3\CGAVINH\06-Mar-2022\1\\
 #P Geom=AllCheck Guess=TCheck SCRF=Check GenChk RMP2(FC)/Aug-CC-pVTZ F
 req\\title\\0,1\H\O,1,r1\O,2,r2,1,a1\N,3,r3,2,a2,1,d1,0\O,4,r4,3,a3,2,
 d2,0\\r1=0.98537664\r2=1.42673666\r3=1.38110764\r4=1.19478846\a1=100.6
 355057\a2=113.13777052\a3=114.33392022\d1=0.\d2=0.\\Version=ES64L-G16R
 evB.01\State=1-A'\HF=-279.506429\MP2=-280.4552402\RMSD=1.607e-09\RMSF=
 1.971e-04\ZeroPoint=0.0234322\Thermal=0.0273692\Dipole=-0.1101769,0.,-
 0.4165689\DipoleDeriv=0.3169111,0.,0.0378764,0.,0.2980665,0.,-0.024452

 Normal termination of Gaussian 16 at Sun Mar  6 18:07:57 2022.
