 Gaussian 16, Revision B.01,
 Gaussian 16:  ES64L-G16RevB.01 20-Dec-2017

 ------------------------------------------------------
 #p freq opt=(z-matrix) mp2/aug-cc-pvtz density=current
 ------------------------------------------------------

 -----
 title
 -----
 Symbolic Z-matrix:
 Charge =  0 Multiplicity = 1

 SCF Done:  E(RHF) =  -279.433835131     A.U. after   18 cycles
 E2 =    -0.9557602956D+00 EUMP2 =    -0.28038959542618D+03
 SCF Done:  E(RHF) =  -279.472249577     A.U. after   16 cycles
 E2 =    -0.9461311975D+00 EUMP2 =    -0.28041838077428D+03
 SCF Done:  E(RHF) =  -279.502509729     A.U. after   16 cycles
 E2 =    -0.9362652311D+00 EUMP2 =    -0.28043877496038D+03
 SCF Done:  E(RHF) =  -279.500302649     A.U. after   16 cycles
 E2 =    -0.9483949998D+00 EUMP2 =    -0.28044869764911D+03
 SCF Done:  E(RHF) =  -279.503435031     A.U. after   15 cycles
 E2 =    -0.9462028811D+00 EUMP2 =    -0.28044963791197D+03
 SCF Done:  E(RHF) =  -279.503519515     A.U. after   14 cycles
 E2 =    -0.9467827675D+00 EUMP2 =    -0.28045030228205D+03
 SCF Done:  E(RHF) =  -279.503560019     A.U. after   13 cycles
 E2 =    -0.9467761242D+00 EUMP2 =    -0.28045033614372D+03
 SCF Done:  E(RHF) =  -279.504544668     A.U. after   13 cycles
 E2 =    -0.9459298771D+00 EUMP2 =    -0.28045047454481D+03
 SCF Done:  E(RHF) =  -279.504195248     A.U. after   13 cycles
 E2 =    -0.9463140476D+00 EUMP2 =    -0.28045050929543D+03
 SCF Done:  E(RHF) =  -279.505091561     A.U. after   13 cycles
 E2 =    -0.9454175837D+00 EUMP2 =    -0.28045050914477D+03
 SCF Done:  E(RHF) =  -279.504605632     A.U. after   10 cycles
 E2 =    -0.9459176285D+00 EUMP2 =    -0.28045052326015D+03
 SCF Done:  E(RHF) =  -279.504587102     A.U. after   10 cycles
 E2 =    -0.9459382037D+00 EUMP2 =    -0.28045052530576D+03
 SCF Done:  E(RHF) =  -279.503536041     A.U. after   14 cycles
 E2 =    -0.9457158646D+00 EUMP2 =    -0.28044925190537D+03
 SCF Done:  E(RHF) =  -279.504583349     A.U. after   14 cycles
 E2 =    -0.9458868967D+00 EUMP2 =    -0.28045047024598D+03
 SCF Done:  E(RHF) =  -279.498783229     A.U. after   14 cycles
 E2 =    -0.9507212980D+00 EUMP2 =    -0.28044950452710D+03
 SCF Done:  E(RHF) =  -279.504567564     A.U. after    2 cycles
 E2 =    -0.9459577400D+00 EUMP2 =    -0.28045052530448D+03
 SCF Done:  E(RHF) =  -279.504457977     A.U. after   12 cycles
 E2 =    -0.9460716802D+00 EUMP2 =    -0.28045052965688D+03
 SCF Done:  E(RHF) =  -279.504389483     A.U. after   11 cycles
 E2 =    -0.9461417759D+00 EUMP2 =    -0.28045053125889D+03
 SCF Done:  E(RHF) =  -279.504276926     A.U. after   11 cycles
 E2 =    -0.9462549032D+00 EUMP2 =    -0.28045053182969D+03
 Optimization completed.
    -- Stationary point found.

 1\1\GINC-N2398\FOpt\RMP2-FC\Aug-CC-pVTZ\H1N1O3\CGAVINH\06-Mar-2022\1\\
 #p freq opt=(z-matrix) mp2/aug-cc-pvtz density=current\\title\\0,1\H\O
 ,1,r1\O,2,r2,1,a1\N,3,r3,2,a2,1,d1,0\O,4,r4,3,a3,2,d2,0\\r1=0.96891612
 \r2=1.42960319\r3=1.49225222\r4=1.16599834\a1=100.85756692\a2=105.1961
 2434\a3=108.88841884\d1=98.71049762\d2=-183.20968108\\Version=ES64L-G1
 6RevB.01\State=1-A\HF=-279.5042769\MP2=-280.4505318\RMSD=3.758e-09\RMS
 F=7.872e-05\Dipole=0.1549671,0.1887909,0.5973958\Quadrupole=0.5018866,
 -1.5991655,1.0972789,0.2222251,2.477024,0.3117751\PG=C01 [X(H1N1O3)]\\

 Normal termination of Gaussian 16 at Sun Mar  6 17:06:07 2022.

 ----------------------------------------------------------------------
 #P Geom=AllCheck Guess=TCheck SCRF=Check GenChk RMP2(FC)/Aug-CC-pVTZ F
 req
 ----------------------------------------------------------------------

 Structure from the checkpoint file:  "hoono_eq.chk"
 -----
 title
 -----
 Charge =  0 Multiplicity = 1

                         Standard orientation:
 ---------------------------------------------------------------------
 Center     Atomic      Atomic             Coordinates (Angstroms)
 Number     Number       Type             X           Y           Z
 ---------------------------------------------------------------------
      1          1           0        1.909726    0.220881    0.820875
      2          8           0        1.631876    0.194955   -0.106985
      3          8           0        0.417689   -0.552608   -0.003713
      4          7           0       -0.671286    0.467658   -0.006727
      5          8           0       -1.700906   -0.079157    0.013975
 ---------------------------------------------------------------------

 SCF Done:  E(RHF) =  -279.504276926     A.U. after    1 cycles
 E2 =    -0.9462548969D+00 EUMP2 =    -0.28045053182341D+03
 E2 =    -0.9462548969D+00 EUMP2 =    -0.28045053182341D+03

 The electronic state is 1-A.
 Alpha  occ. eigenvalues --  -20.69337 -20.68786 -20.65868 -15.81539  -1.62881
 Alpha  occ. eigenvalues --   -1.50233  -1.24238  -0.95368  -0.77763  -0.75583
 Alpha  occ. eigenvalues --   -0.73246  -0.67338  -0.61876  -0.56441  -0.51819
 Alpha  occ. eigenvalues --   -0.45896
 Alpha virt. eigenvalues --    0.02929   0.06608   0.08466   0.10194   0.11481
 Alpha virt. eigenvalues --    0.13555   0.14938   0.15478   0.17559   0.18514
 Alpha virt. eigenvalues --    0.19687   0.20567   0.22087   0.23169   0.24710

 Mulliken charges:
               1
     1  H    0.269671
     2  O   -0.238066
     3  O   -0.146712
     4  N    0.298121
     5  O   -0.183015
 Sum of Mulliken charges =  -0.00000

 Dipole moment (field-independent basis, Debye):
    X=              0.3939    Y=              0.4799    Z=              1.5184  Tot=              1.6404
 Quadrupole moment (field-independent basis, Debye-Ang):
   XX=            -20.8748   YY=            -23.7007   ZZ=            -20.0739
   XY=              0.2989   XZ=              3.3317   YZ=              0.4193

  Exact polarizability:  40.866  -0.243  22.360   0.755   0.103  19.048
 Approx polarizability:  31.715   1.388  19.805   0.211  -0.048  16.985

                      1                      2                      3
                      A                      A                      A
 Frequencies --    213.2328               320.8097               351.1404
 Red. masses --      9.3570                 1.1409                14.6973
 Frc consts  --      0.2507                 0.0692                 1.0677
 IR Inten    --      2.3212               111.9673                 6.0524

                      4                      5                      6
                      A                      A                      A
 Frequencies --    407.3147               787.1814               975.5435
 Red. masses --     12.7586                14.8531                14.4116
 Frc consts  --      1.2471                 5.4227                 8.0808
 IR Inten    --    170.4332               143.1709                43.0824

                      7                      8                      9
                      A                      A                      A
 Frequencies --   1395.2021              1694.1219              3758.3646
 Red. masses --      1.1078                14.8109                 1.0687
 Frc consts  --      1.2706                25.0450                 8.8938
 IR Inten    --     60.7302               181.6920                51.5126

 - Thermochemistry -
 -------------------
 Temperature   298.150 Kelvin.  Pressure   1.00000 Atm.
 Atom     1 has atomic number  1 and mass   1.00783

 Molecular mass:    62.99564 amu.
 Principal axes and moments of inertia in atomic units:
                           1         2         3
     Eigenvalues --    34.04124 365.82500 393.96431
           X            0.99987   0.00419   0.01576
           Y           -0.00457   0.99970   0.02402
           Z           -0.01566  -0.02409   0.99959
 This molecule is an asymmetric top.
 Rotational symmetry number  1.
 Rotational temperatures (Kelvin)      2.54438     0.23676     0.21985
 Rotational constants (GHZ):          53.01631     4.93335     4.58098
 Zero-point vibrational energy      59232.6 (Joules/Mol)
                                   14.15692 (Kcal/Mol)
 Warning -- explicit consideration of   4 degrees of freedom as
           vibrations may cause significant error
 Vibrational temperatures:    306.79   461.57   505.21   586.03  1132.58
          (Kelvin)           1403.59  2007.38  2437.46  5407.45

 Zero-point correction=                           0.022560 (Hartree/Particle)
 Thermal correction to Energy=                    0.027123
 Thermal correction to Enthalpy=                  0.028067
 Thermal correction to Gibbs Free Energy=        -0.003869
 Sum of electronic and zero-point Energies=           -280.427971
 Sum of electronic and thermal Energies=              -280.423409
 Sum of electronic and thermal Enthalpies=            -280.422465
 Sum of electronic and thermal Free Energies=         -280.454401

                     E (Thermal)             CV                S
                      KCal/Mol        Cal/Mol-Kelvin    Cal/Mol-Kelvin
 Total                   17.020             13.665             67.215
 Electronic               0.000              0.000              0.000
 Translational            0.889              2.981             38.341
 Rotational               0.889              2.981             23.110
 Vibrational             15.242              7.704              5.764
 Vibration     1          0.644              1.821              2.016
 Vibration     2          0.706              1.634              1.306
 Vibration     3          0.728              1.573              1.161
 Vibration     4          0.772              1.454              0.936

                       ! Non-Optimized Parameters !

 1\1\GINC-N2398\Freq\RMP2-FC\Aug-CC-pVTZ\H1N1O3\CGAVINH\06-Mar-2022\1\\
 #P Geom=AllCheck Guess=TCheck SCRF=Check GenChk RMP2(FC)/Aug-CC-pVTZ F
 req\\title\\0,1\H\O,1,r1\O,2,r2,1,a1\N,3,r3,2,a2,1,d1,0\O,4,r4,3,a3,2,
 d2,0\\r1=0.96891612\r2=1.42960319\r3=1.49225222\r4=1.16599834\a1=100.8
 5756692\a2=105.19612434\a3=108.88841884\d1=98.71049762\d2=-183.2096810
 8\\Version=ES64L-G16RevB.01\State=1-A\HF=-279.5042769\MP2=-280.4505318
 \RMSD=6.454e-10\RMSF=7.872e-05\ZeroPoint=0.0225605\Thermal=0.0271229\D
 ipole=-0.071376,0.1584001,-0.6215733\DipoleDeriv=0.2320979,-0.0119411,

 Normal termination of Gaussian 16 at Sun Mar  6 17:10:46 2022.
