 Gaussian 16, Revision B.01,
 Gaussian 16:  ES64L-G16RevB.01 20-Dec-2017

 -------------------------------------
 #p SP mp2/aug-cc-pvtz density=current
 -------------------------------------

 -----
 title
 -----
 Symbolic Z-matrix:
 Charge =  0 Multiplicity = 1

                         Standard orientation:
 ---------------------------------------------------------------------
 Center     Atomic      Atomic             Coordinates (Angstroms)
 Number     Number       Type             X           Y           Z
 ---------------------------------------------------------------------
      1          1           0        1.761271   -0.150624   -0.000000
      2          8           0        0.898295   -0.594112   -0.000000
      3          7           0        0.000000    0.522078    0.000000
      4          8           0       -1.118454    0.156121    0.000000
 ---------------------------------------------------------------------

 SCF Done:  E(RHF) =  -204.722930675     A.U. after   13 cycles
 E2 =    -0.6984164485D+00 EUMP2 =    -0.20542134712354D+03

 The electronic state is 1-A'.
 Alpha  occ. eigenvalues --  -20.66648 -20.64158 -15.79948  -1.60250  -1.40109
 Alpha  occ. eigenvalues --   -0.94866  -0.78321  -0.72952  -0.68091  -0.62578
 Alpha  occ. eigenvalues --   -0.52856  -0.46167
 Alpha virt. eigenvalues --    0.02811   0.07983   0.09383   0.09754   0.12894
 Alpha virt. eigenvalues --    0.14384   0.15683   0.17222   0.18732   0.19656
 Alpha virt. eigenvalues --    0.20542   0.23322   0.25787   0.29645   0.30572

 Mulliken charges:
               1
     1  H    0.271676
     2  O   -0.273897
     3  N    0.181528
     4  O   -0.179308
 Sum of Mulliken charges =  -0.00000

 Dipole moment (field-independent basis, Debye):
    X=              1.7268    Y=              0.6683    Z=             -0.0000  Tot=              1.8516
 Quadrupole moment (field-independent basis, Debye-Ang):
   XX=            -13.6504   YY=            -18.7024   ZZ=            -16.4656
   XY=              0.5747   XZ=             -0.0000   YZ=              0.0000

 Normal termination of Gaussian 16 at Mon Jan 24 13:49:15 2022.
