 Gaussian 16, Revision B.01,
 Gaussian 16:  ES64L-G16RevB.01 20-Dec-2017

 -------------------------------------
 #p SP mp2/aug-cc-pvtz density=current
 -------------------------------------

 -----
 title
 -----
 Symbolic Z-matrix:
 Charge =  0 Multiplicity = 1

                         Standard orientation:
 ---------------------------------------------------------------------
 Center     Atomic      Atomic             Coordinates (Angstroms)
 Number     Number       Type             X           Y           Z
 ---------------------------------------------------------------------
      1          1           0       -2.248820    0.434593   -0.009642
      2          8           0       -1.598723   -0.283935   -0.007478
      3          8           0       -0.400384    0.541003    0.008422
      4          7           0        0.663714   -0.456857    0.012952
      5          8           0        1.699460    0.088358   -0.011072
 ---------------------------------------------------------------------

 SCF Done:  E(RHF) =  -279.501672813     A.U. after   14 cycles
 E2 =    -0.9450391693D+00 EUMP2 =    -0.28044671198227D+03

 The electronic state is 1-A.
 Alpha  occ. eigenvalues --  -20.69087 -20.68431 -20.65998 -15.81283  -1.62403
 Alpha  occ. eigenvalues --   -1.49574  -1.25441  -0.94807  -0.77278  -0.75918
 Alpha  occ. eigenvalues --   -0.71183  -0.67933  -0.62047  -0.58942  -0.48522
 Alpha  occ. eigenvalues --   -0.47250
 Alpha virt. eigenvalues --    0.02963   0.07166   0.08595   0.10172   0.13338
 Alpha virt. eigenvalues --    0.13452   0.14408   0.15453   0.17823   0.19417
 Alpha virt. eigenvalues --    0.19977   0.20640   0.22083   0.23524   0.23759

 Mulliken charges:
               1
     1  H    0.250275
     2  O   -0.201584
     3  O   -0.147215
     4  N    0.291729
     5  O   -0.193205
 Sum of Mulliken charges =  -0.00000

 Dipole moment (field-independent basis, Debye):
    X=             -1.2177    Y=              0.7913    Z=             -0.0035  Tot=              1.4523
 Quadrupole moment (field-independent basis, Debye-Ang):
   XX=            -17.9907   YY=            -23.0932   ZZ=            -22.0110
   XY=             -2.7932   XZ=              0.0519   YZ=              0.0203

 Normal termination of Gaussian 16 at Mon Feb 14 22:03:37 2022.
