 Gaussian 16, Revision B.01,
 Gaussian 16:  ES64L-G16RevB.01 20-Dec-2017

 -------------------------------------
 #p SP mp2/aug-cc-pvtz density=current
 -------------------------------------

 -----
 title
 -----
 Symbolic Z-matrix:
 Charge =  0 Multiplicity = 1

                         Standard orientation:
 ---------------------------------------------------------------------
 Center     Atomic      Atomic             Coordinates (Angstroms)
 Number     Number       Type             X           Y           Z
 ---------------------------------------------------------------------
      1          1           0        1.535192    1.702939    0.000000
      2          8           0        1.453251    0.737435    0.000000
      3          8           0       -0.000000    0.667784    0.000000
      4          7           0       -0.260356   -0.767579    0.000000
      5          8           0       -1.417339   -0.946454    0.000000
 ---------------------------------------------------------------------

 SCF Done:  E(RHF) =  -279.501719834     A.U. after   14 cycles
 E2 =    -0.9449916966D+00 EUMP2 =    -0.28044671153063D+03

 The electronic state is 1-A'.
 Alpha  occ. eigenvalues --  -20.69068 -20.68446 -20.66023 -15.81306  -1.62401
 Alpha  occ. eigenvalues --   -1.49554  -1.25476  -0.94793  -0.77222  -0.75948
 Alpha  occ. eigenvalues --   -0.71169  -0.68047  -0.62065  -0.58889  -0.48516
 Alpha  occ. eigenvalues --   -0.47235
 Alpha virt. eigenvalues --    0.02963   0.07159   0.08596   0.10191   0.13387
 Alpha virt. eigenvalues --    0.13388   0.14399   0.15429   0.17829   0.19425
 Alpha virt. eigenvalues --    0.19988   0.20627   0.22073   0.23534   0.23732

 Mulliken charges:
               1
     1  H    0.251260
     2  O   -0.203103
     3  O   -0.146075
     4  N    0.290488
     5  O   -0.192570
 Sum of Mulliken charges =  -0.00000

 Dipole moment (field-independent basis, Debye):
    X=              0.4899    Y=              1.3663    Z=             -0.0000  Tot=              1.4515
 Quadrupole moment (field-independent basis, Debye-Ang):
   XX=            -22.5455   YY=            -18.5420   ZZ=            -22.0118
   XY=              3.2307   XZ=              0.0000   YZ=              0.0000

 Normal termination of Gaussian 16 at Mon Feb 14 22:01:00 2022.
