 Gaussian 16, Revision B.01,
 Gaussian 16:  ES64L-G16RevB.01 20-Dec-2017

 -------------------------------------
 #p SP mp2/aug-cc-pvtz density=current
 -------------------------------------

 -----
 title
 -----
 Symbolic Z-matrix:
 Charge =  0 Multiplicity = 1

                         Standard orientation:
 ---------------------------------------------------------------------
 Center     Atomic      Atomic             Coordinates (Angstroms)
 Number     Number       Type             X           Y           Z
 ---------------------------------------------------------------------
      1          1           0        1.547798    1.694031    0.000000
      2          8           0        1.453997    0.729607    0.000000
      3          8           0        0.000000    0.677821    0.000000
      4          7           0       -0.261633   -0.767914   -0.000000
      5          8           0       -1.418543   -0.947257   -0.000000
 ---------------------------------------------------------------------

 SCF Done:  E(RHF) =  -279.500653722     A.U. after   14 cycles
 E2 =    -0.9460570818D+00 EUMP2 =    -0.28044671080415D+03

 The electronic state is 1-A'.
 Alpha  occ. eigenvalues --  -20.68912 -20.68677 -20.65870 -15.81452  -1.62358
 Alpha  occ. eigenvalues --   -1.49425  -1.25128  -0.94888  -0.77196  -0.75798
 Alpha  occ. eigenvalues --   -0.71006  -0.67991  -0.62098  -0.58887  -0.48413
 Alpha  occ. eigenvalues --   -0.47203
 Alpha virt. eigenvalues --    0.02991   0.07033   0.08575   0.10160   0.13390
 Alpha virt. eigenvalues --    0.13403   0.14430   0.15474   0.17849   0.19413
 Alpha virt. eigenvalues --    0.19975   0.20491   0.22110   0.23588   0.23726

 Mulliken charges:
               1
     1  H    0.250164
     2  O   -0.202305
     3  O   -0.153936
     4  N    0.294781
     5  O   -0.188705
 Sum of Mulliken charges =  -0.00000

 Dipole moment (field-independent basis, Debye):
    X=              0.4610    Y=              1.3004    Z=              0.0000  Tot=              1.3797
 Quadrupole moment (field-independent basis, Debye-Ang):
   XX=            -22.4512   YY=            -18.5712   ZZ=            -22.0253
   XY=              3.2757   XZ=             -0.0000   YZ=              0.0000

 Normal termination of Gaussian 16 at Mon Feb 14 21:59:11 2022.
