 Gaussian 16, Revision B.01,
 Gaussian 16:  ES64L-G16RevB.01 20-Dec-2017

 -------------------------------------
 #p SP mp2/aug-cc-pvtz density=current
 -------------------------------------

 -----
 title
 -----
 Symbolic Z-matrix:
 Charge =  0 Multiplicity = 1

                         Standard orientation:
 ---------------------------------------------------------------------
 Center     Atomic      Atomic             Coordinates (Angstroms)
 Number     Number       Type             X           Y           Z
 ---------------------------------------------------------------------
      1          1           0        1.549624    1.691991    0.000000
      2          8           0        1.454064    0.722725    0.000000
      3          8           0        0.000000    0.672854    0.000000
      4          7           0       -0.261665   -0.762271   -0.000000
      5          8           0       -1.418811   -0.940091   -0.000000
 ---------------------------------------------------------------------

 SCF Done:  E(RHF) =  -279.501426649     A.U. after   14 cycles
 E2 =    -0.9452855650D+00 EUMP2 =    -0.28044671221381D+03

 The electronic state is 1-A'.
 Alpha  occ. eigenvalues --  -20.69075 -20.68420 -20.66037 -15.81273  -1.62392
 Alpha  occ. eigenvalues --   -1.49514  -1.25344  -0.94795  -0.77238  -0.75878
 Alpha  occ. eigenvalues --   -0.71168  -0.67860  -0.62031  -0.58919  -0.48505
 Alpha  occ. eigenvalues --   -0.47237
 Alpha virt. eigenvalues --    0.02953   0.07175   0.08597   0.10173   0.13396
 Alpha virt. eigenvalues --    0.13399   0.14386   0.15435   0.17833   0.19419
 Alpha virt. eigenvalues --    0.19982   0.20636   0.22083   0.23556   0.23743

 Mulliken charges:
               1
     1  H    0.254319
     2  O   -0.205649
     3  O   -0.146831
     4  N    0.291407
     5  O   -0.193246
 Sum of Mulliken charges =  -0.00000

 Dipole moment (field-independent basis, Debye):
    X=              0.5109    Y=              1.3671    Z=              0.0000  Tot=              1.4595
 Quadrupole moment (field-independent basis, Debye-Ang):
   XX=            -22.4712   YY=            -18.5963   ZZ=            -22.0166
   XY=              3.2659   XZ=             -0.0000   YZ=              0.0000

 Normal termination of Gaussian 16 at Mon Feb 14 21:57:58 2022.
