 Gaussian 16, Revision B.01,
 Gaussian 16:  ES64L-G16RevB.01 20-Dec-2017

 -------------------------------------
 #p SP mp2/aug-cc-pvtz density=current
 -------------------------------------

 -----
 title
 -----
 Symbolic Z-matrix:
 Charge =  0 Multiplicity = 1

                         Standard orientation:
 ---------------------------------------------------------------------
 Center     Atomic      Atomic             Coordinates (Angstroms)
 Number     Number       Type             X           Y           Z
 ---------------------------------------------------------------------
      1          1           0       -2.247496    0.433155    0.061248
      2          8           0       -1.598917   -0.283659   -0.005359
      3          8           0       -0.400327    0.541065   -0.007211
      4          7           0        0.663567   -0.456973    0.002869
      5          8           0        1.699560    0.088301    0.002404
 ---------------------------------------------------------------------

 SCF Done:  E(RHF) =  -279.501704627     A.U. after   14 cycles
 E2 =    -0.9450528587D+00 EUMP2 =    -0.28044675748543D+03

 The electronic state is 1-A.
 Alpha  occ. eigenvalues --  -20.69091 -20.68429 -20.66000 -15.81282  -1.62403
 Alpha  occ. eigenvalues --   -1.49576  -1.25441  -0.94807  -0.77274  -0.75922
 Alpha  occ. eigenvalues --   -0.71195  -0.67929  -0.62038  -0.58935  -0.48548
 Alpha  occ. eigenvalues --   -0.47238
 Alpha virt. eigenvalues --    0.02962   0.07167   0.08594   0.10172   0.13344
 Alpha virt. eigenvalues --    0.13440   0.14405   0.15452   0.17824   0.19417
 Alpha virt. eigenvalues --    0.19972   0.20640   0.22081   0.23541   0.23736

 Mulliken charges:
               1
     1  H    0.250224
     2  O   -0.201592
     3  O   -0.147143
     4  N    0.291780
     5  O   -0.193269
 Sum of Mulliken charges =  -0.00000

 Dipole moment (field-independent basis, Debye):
    X=             -1.2158    Y=              0.7885    Z=              0.1163  Tot=              1.4537
 Quadrupole moment (field-independent basis, Debye-Ang):
   XX=            -18.0055   YY=            -23.0973   ZZ=            -21.9996
   XY=             -2.7840   XZ=             -0.3074   YZ=              0.0950

 Normal termination of Gaussian 16 at Mon Feb 14 22:02:45 2022.
