 Gaussian 16, Revision B.01,
 Gaussian 16:  ES64L-G16RevB.01 20-Dec-2017

 -------------------------------------
 #p SP mp2/aug-cc-pvtz density=current
 -------------------------------------

 -----
 title
 -----
 Symbolic Z-matrix:
 Charge =  0 Multiplicity = 1

                         Standard orientation:
 ---------------------------------------------------------------------
 Center     Atomic      Atomic             Coordinates (Angstroms)
 Number     Number       Type             X           Y           Z
 ---------------------------------------------------------------------
      1          1           0        1.550586    1.684810   -0.000000
      2          8           0        1.454134    0.720647   -0.000000
      3          8           0        0.000000    0.672859   -0.000000
      4          7           0       -0.263721   -0.761889    0.000000
      5          8           0       -1.417202   -0.937454    0.000000
 ---------------------------------------------------------------------

 SCF Done:  E(RHF) =  -279.502338231     A.U. after   14 cycles
 E2 =    -0.9443706464D+00 EUMP2 =    -0.28044670887729D+03

 The electronic state is 1-A'.
 Alpha  occ. eigenvalues --  -20.68995 -20.68446 -20.65947 -15.81226  -1.62727
 Alpha  occ. eigenvalues --   -1.49579  -1.25401  -0.94753  -0.77325  -0.76023
 Alpha  occ. eigenvalues --   -0.71262  -0.67984  -0.62125  -0.58917  -0.48489
 Alpha  occ. eigenvalues --   -0.47173
 Alpha virt. eigenvalues --    0.02974   0.07290   0.08588   0.10172   0.13388
 Alpha virt. eigenvalues --    0.13401   0.14416   0.15463   0.17833   0.19413
 Alpha virt. eigenvalues --    0.19995   0.20637   0.22095   0.23576   0.23741

 Mulliken charges:
               1
     1  H    0.250126
     2  O   -0.201910
     3  O   -0.148041
     4  N    0.292156
     5  O   -0.192332
 Sum of Mulliken charges =  -0.00000

 Dipole moment (field-independent basis, Debye):
    X=              0.4932    Y=              1.3432    Z=             -0.0000  Tot=              1.4309
 Quadrupole moment (field-independent basis, Debye-Ang):
   XX=            -22.4481   YY=            -18.6158   ZZ=            -22.0038
   XY=              3.2694   XZ=             -0.0000   YZ=              0.0000

 Normal termination of Gaussian 16 at Mon Feb 14 22:00:06 2022.
