 Gaussian 16, Revision B.01,
 Gaussian 16:  ES64L-G16RevB.01 20-Dec-2017

 -------------------------------------
 #p SP mp2/aug-cc-pvtz density=current
 -------------------------------------

 -----
 title
 -----
 Symbolic Z-matrix:
 Charge =  0 Multiplicity = 1

                         Standard orientation:
 ---------------------------------------------------------------------
 Center     Atomic      Atomic             Coordinates (Angstroms)
 Number     Number       Type             X           Y           Z
 ---------------------------------------------------------------------
      1          1           0        1.558690    1.683004    0.000000
      2          8           0        1.460929    0.718973    0.000000
      3          8           0        0.000000    0.672947    0.000000
      4          7           0       -0.265668   -0.761442    0.000000
      5          8           0       -1.423305   -0.936033    0.000000
 ---------------------------------------------------------------------

 SCF Done:  E(RHF) =  -279.501109695     A.U. after   14 cycles
 E2 =    -0.9455994398D+00 EUMP2 =    -0.28044670913483D+03

 The electronic state is 1-A'.
 Alpha  occ. eigenvalues --  -20.69126 -20.68441 -20.66056 -15.81297  -1.62384
 Alpha  occ. eigenvalues --   -1.49309  -1.25561  -0.94797  -0.77208  -0.75864
 Alpha  occ. eigenvalues --   -0.71119  -0.67937  -0.61982  -0.58850  -0.48643
 Alpha  occ. eigenvalues --   -0.47265
 Alpha virt. eigenvalues --    0.02961   0.07166   0.08577   0.10169   0.13362
 Alpha virt. eigenvalues --    0.13396   0.14404   0.15450   0.17827   0.19424
 Alpha virt. eigenvalues --    0.19983   0.20629   0.21978   0.23278   0.23732

 Mulliken charges:
               1
     1  H    0.250645
     2  O   -0.202388
     3  O   -0.147524
     4  N    0.292300
     5  O   -0.193034
 Sum of Mulliken charges =   0.00000

 Dipole moment (field-independent basis, Debye):
    X=              0.5095    Y=              1.3547    Z=              0.0000  Tot=              1.4474
 Quadrupole moment (field-independent basis, Debye-Ang):
   XX=            -22.4320   YY=            -18.6405   ZZ=            -22.0197
   XY=              3.2772   XZ=              0.0000   YZ=             -0.0000

 Normal termination of Gaussian 16 at Mon Feb 14 21:58:35 2022.
