 Gaussian 16, Revision B.01,
 Gaussian 16:  ES64L-G16RevB.01 20-Dec-2017

 -------------------------------------
 #p SP mp2/aug-cc-pvtz density=current
 -------------------------------------

 -----
 title
 -----
 Symbolic Z-matrix:
 Charge =  0 Multiplicity = 1

                         Standard orientation:
 ---------------------------------------------------------------------
 Center     Atomic      Atomic             Coordinates (Angstroms)
 Number     Number       Type             X           Y           Z
 ---------------------------------------------------------------------
      1          1           0        1.539524    1.691386    0.000000
      2          8           0        1.447187    0.726820    0.000000
      3          8           0        0.000000    0.673077   -0.000000
      4          7           0       -0.257595   -0.762784   -0.000000
      5          8           0       -1.414232   -0.943884   -0.000000
 ---------------------------------------------------------------------

 SCF Done:  E(RHF) =  -279.502216889     A.U. after   14 cycles
 E2 =    -0.9444979237D+00 EUMP2 =    -0.28044671481252D+03

 The electronic state is 1-A'.
 Alpha  occ. eigenvalues --  -20.69050 -20.68418 -20.65940 -15.81270  -1.62424
 Alpha  occ. eigenvalues --   -1.49844  -1.25321  -0.94816  -0.77351  -0.75973
 Alpha  occ. eigenvalues --   -0.71242  -0.67939  -0.62110  -0.59034  -0.48401
 Alpha  occ. eigenvalues --   -0.47234
 Alpha virt. eigenvalues --    0.02964   0.07168   0.08611   0.10175   0.13395
 Alpha virt. eigenvalues --    0.13426   0.14411   0.15456   0.17824   0.19411
 Alpha virt. eigenvalues --    0.19978   0.20643   0.22154   0.23743   0.23841

 Mulliken charges:
               1
     1  H    0.249880
     2  O   -0.200806
     3  O   -0.146760
     4  N    0.291162
     5  O   -0.193476
 Sum of Mulliken charges =  -0.00000

 Dipole moment (field-independent basis, Debye):
    X=              0.5070    Y=              1.3669    Z=             -0.0000  Tot=              1.4579
 Quadrupole moment (field-independent basis, Debye-Ang):
   XX=            -22.5060   YY=            -18.5912   ZZ=            -22.0009
   XY=              3.2345   XZ=             -0.0000   YZ=              0.0000

 Normal termination of Gaussian 16 at Mon Feb 14 21:58:53 2022.
