 Gaussian 16, Revision B.01,
 Gaussian 16:  ES64L-G16RevB.01 20-Dec-2017

 -------------------------------------
 #p SP mp2/aug-cc-pvtz density=current
 -------------------------------------

 -----
 title
 -----
 Symbolic Z-matrix:
 Charge =  0 Multiplicity = 1

                         Standard orientation:
 ---------------------------------------------------------------------
 Center     Atomic      Atomic             Coordinates (Angstroms)
 Number     Number       Type             X           Y           Z
 ---------------------------------------------------------------------
      1          1           0        1.548599    1.682440    0.000000
      2          8           0        1.454062    0.723101    0.000000
      3          8           0        0.000000    0.673164    0.000000
      4          7           0       -0.261600   -0.761972   -0.000000
      5          8           0       -1.418737   -0.939845   -0.000000
 ---------------------------------------------------------------------

 SCF Done:  E(RHF) =  -279.501903109     A.U. after   14 cycles
 E2 =    -0.9448086253D+00 EUMP2 =    -0.28044671173429D+03

 The electronic state is 1-A'.
 Alpha  occ. eigenvalues --  -20.69102 -20.68439 -20.65959 -15.81294  -1.62415
 Alpha  occ. eigenvalues --   -1.49637  -1.25539  -0.94818  -0.77320  -0.75958
 Alpha  occ. eigenvalues --   -0.71191  -0.68013  -0.62061  -0.58967  -0.48540
 Alpha  occ. eigenvalues --   -0.47264
 Alpha virt. eigenvalues --    0.02972   0.07160   0.08592   0.10171   0.13392
 Alpha virt. eigenvalues --    0.13394   0.14428   0.15472   0.17819   0.19416
 Alpha virt. eigenvalues --    0.19979   0.20637   0.22080   0.23528   0.23733

 Mulliken charges:
               1
     1  H    0.246068
     2  O   -0.197400
     3  O   -0.147488
     4  N    0.292080
     5  O   -0.193260
 Sum of Mulliken charges =  -0.00000

 Dipole moment (field-independent basis, Debye):
    X=              0.5056    Y=              1.3544    Z=             -0.0000  Tot=              1.4457
 Quadrupole moment (field-independent basis, Debye-Ang):
   XX=            -22.4668   YY=            -18.6351   ZZ=            -22.0041
   XY=              3.2461   XZ=             -0.0000   YZ=              0.0000

 Normal termination of Gaussian 16 at Mon Feb 14 21:58:17 2022.
