 Gaussian 16, Revision B.01,
 Gaussian 16:  ES64L-G16RevB.01 20-Dec-2017

 -------------------------------------
 #p SP mp2/aug-cc-pvtz density=current
 -------------------------------------

 -----
 title
 -----
 Symbolic Z-matrix:
 Charge =  0 Multiplicity = 1

                         Standard orientation:
 ---------------------------------------------------------------------
 Center     Atomic      Atomic             Coordinates (Angstroms)
 Number     Number       Type             X           Y           Z
 ---------------------------------------------------------------------
      1          1           0        1.563739    1.684769   -0.000000
      2          8           0        1.454095    0.722016   -0.000000
      3          8           0       -0.000000    0.673055    0.000000
      4          7           0       -0.262563   -0.761905   -0.000000
      5          8           0       -1.419820   -0.939001    0.000000
 ---------------------------------------------------------------------

 SCF Done:  E(RHF) =  -279.501773747     A.U. after   14 cycles
 E2 =    -0.9449365235D+00 EUMP2 =    -0.28044671027077D+03

 The electronic state is 1-A'.
 Alpha  occ. eigenvalues --  -20.69099 -20.68432 -20.65964 -15.81286  -1.62400
 Alpha  occ. eigenvalues --   -1.49524  -1.25453  -0.94804  -0.77238  -0.75971
 Alpha  occ. eigenvalues --   -0.71171  -0.67958  -0.62031  -0.58864  -0.48512
 Alpha  occ. eigenvalues --   -0.47250
 Alpha virt. eigenvalues --    0.02954   0.07170   0.08595   0.10175   0.13388
 Alpha virt. eigenvalues --    0.13400   0.14408   0.15449   0.17828   0.19426
 Alpha virt. eigenvalues --    0.19988   0.20633   0.22085   0.23543   0.23739

 Mulliken charges:
               1
     1  H    0.249177
     2  O   -0.201604
     3  O   -0.146489
     4  N    0.292080
     5  O   -0.193164
 Sum of Mulliken charges =  -0.00000

 Dipole moment (field-independent basis, Debye):
    X=              0.5273    Y=              1.3617    Z=              0.0000  Tot=              1.4602
 Quadrupole moment (field-independent basis, Debye-Ang):
   XX=            -22.3985   YY=            -18.6261   ZZ=            -22.0118
   XY=              3.3046   XZ=              0.0000   YZ=             -0.0000

 Normal termination of Gaussian 16 at Mon Feb 14 22:00:24 2022.
