 Gaussian 16, Revision B.01,
 Gaussian 16:  ES64L-G16RevB.01 20-Dec-2017

 -------------------------------------
 #p SP mp2/aug-cc-pvtz density=current
 -------------------------------------

 -----
 title
 -----
 Symbolic Z-matrix:
 Charge =  0 Multiplicity = 1

                         Standard orientation:
 ---------------------------------------------------------------------
 Center     Atomic      Atomic             Coordinates (Angstroms)
 Number     Number       Type             X           Y           Z
 ---------------------------------------------------------------------
      1          1           0        1.562635    1.671487    0.000000
      2          8           0        1.454604    0.708552    0.000000
      3          8           0        0.000000    0.678242    0.000000
      4          7           0       -0.262748   -0.756685   -0.000000
      5          8           0       -1.420028   -0.933631   -0.000000
 ---------------------------------------------------------------------

 SCF Done:  E(RHF) =  -279.501600496     A.U. after   14 cycles
 E2 =    -0.9451119191D+00 EUMP2 =    -0.28044671241532D+03

 The electronic state is 1-A'.
 Alpha  occ. eigenvalues --  -20.69107 -20.68413 -20.65974 -15.81261  -1.62406
 Alpha  occ. eigenvalues --   -1.49595  -1.25406  -0.94821  -0.77335  -0.75888
 Alpha  occ. eigenvalues --   -0.71190  -0.67824  -0.62026  -0.58997  -0.48528
 Alpha  occ. eigenvalues --   -0.47265
 Alpha virt. eigenvalues --    0.02962   0.07176   0.08593   0.10152   0.13402
 Alpha virt. eigenvalues --    0.13404   0.14417   0.15476   0.17823   0.19409
 Alpha virt. eigenvalues --    0.19974   0.20641   0.22092   0.23549   0.23744

 Mulliken charges:
               1
     1  H    0.249223
     2  O   -0.200002
     3  O   -0.148298
     4  N    0.292985
     5  O   -0.193908
 Sum of Mulliken charges =  -0.00000

 Dipole moment (field-independent basis, Debye):
    X=              0.5264    Y=              1.3547    Z=              0.0000  Tot=              1.4534
 Quadrupole moment (field-independent basis, Debye-Ang):
   XX=            -22.3927   YY=            -18.6896   ZZ=            -22.0089
   XY=              3.2788   XZ=             -0.0000   YZ=              0.0000

 Normal termination of Gaussian 16 at Mon Feb 14 22:01:18 2022.
