 Gaussian 16, Revision B.01,
 Gaussian 16:  ES64L-G16RevB.01 20-Dec-2017

 -------------------------------------
 #p SP mp2/aug-cc-pvtz density=current
 -------------------------------------

 -----
 title
 -----
 Symbolic Z-matrix:
 Charge =  0 Multiplicity = 1

                         Standard orientation:
 ---------------------------------------------------------------------
 Center     Atomic      Atomic             Coordinates (Angstroms)
 Number     Number       Type             X           Y           Z
 ---------------------------------------------------------------------
      1          1           0        1.508692    1.731663    0.000000
      2          8           0        1.451042    0.764404    0.000000
      3          8           0       -0.000000    0.658253    0.000000
      4          7           0       -0.257595   -0.777608    0.000000
      5          8           0       -1.414232   -0.958708    0.000000
 ---------------------------------------------------------------------

 SCF Done:  E(RHF) =  -279.501640486     A.U. after   14 cycles
 E2 =    -0.9449158116D+00 EUMP2 =    -0.28044655629765D+03

 The electronic state is 1-A'.
 Alpha  occ. eigenvalues --  -20.69024 -20.68476 -20.66067 -15.81347  -1.62397
 Alpha  occ. eigenvalues --   -1.49515  -1.25536  -0.94769  -0.77124  -0.75999
 Alpha  occ. eigenvalues --   -0.71149  -0.68238  -0.62099  -0.58787  -0.48504
 Alpha  occ. eigenvalues --   -0.47208
 Alpha virt. eigenvalues --    0.02963   0.07143   0.08598   0.10227   0.13371
 Alpha virt. eigenvalues --    0.13373   0.14381   0.15382   0.17834   0.19437
 Alpha virt. eigenvalues --    0.20003   0.20598   0.22062   0.23512   0.23721

 Mulliken charges:
               1
     1  H    0.252971
     2  O   -0.205681
     3  O   -0.144207
     4  N    0.288159
     5  O   -0.191242
 Sum of Mulliken charges =  -0.00000

 Dipole moment (field-independent basis, Debye):
    X=              0.4555    Y=              1.3753    Z=              0.0000  Tot=              1.4488
 Quadrupole moment (field-independent basis, Debye-Ang):
   XX=            -22.6857   YY=            -18.4075   ZZ=            -22.0143
   XY=              3.1777   XZ=             -0.0000   YZ=             -0.0000

 Normal termination of Gaussian 16 at Mon Feb 14 22:12:55 2022.
