 Gaussian 16, Revision B.01,
 Gaussian 16:  ES64L-G16RevB.01 20-Dec-2017

 -------------------------------------
 #p SP mp2/aug-cc-pvtz density=current
 -------------------------------------

 -----
 title
 -----
 Symbolic Z-matrix:
 Charge =  0 Multiplicity = 1

                         Standard orientation:
 ---------------------------------------------------------------------
 Center     Atomic      Atomic             Coordinates (Angstroms)
 Number     Number       Type             X           Y           Z
 ---------------------------------------------------------------------
      1          1           0        1.551091    1.692119    0.000000
      2          8           0        1.454158    0.728004    0.000000
      3          8           0       -0.000000    0.680942   -0.000000
      4          7           0       -0.264437   -0.753674   -0.000000
      5          8           0       -1.416662   -0.960997   -0.000000
 ---------------------------------------------------------------------

 SCF Done:  E(RHF) =  -279.501383127     A.U. after   14 cycles
 E2 =    -0.9451706747D+00 EUMP2 =    -0.28044655380126D+03

 The electronic state is 1-A'.
 Alpha  occ. eigenvalues --  -20.69154 -20.68484 -20.66096 -15.81227  -1.62275
 Alpha  occ. eigenvalues --   -1.49688  -1.25565  -0.94767  -0.77361  -0.75867
 Alpha  occ. eigenvalues --   -0.71151  -0.67977  -0.62106  -0.59076  -0.48595
 Alpha  occ. eigenvalues --   -0.47053
 Alpha virt. eigenvalues --    0.02951   0.07233   0.08563   0.10173   0.13404
 Alpha virt. eigenvalues --    0.13405   0.14402   0.15463   0.17809   0.19423
 Alpha virt. eigenvalues --    0.19975   0.20604   0.22081   0.23388   0.23717

 Mulliken charges:
               1
     1  H    0.250299
     2  O   -0.198230
     3  O   -0.149299
     4  N    0.289925
     5  O   -0.192695
 Sum of Mulliken charges =   0.00000

 Dipole moment (field-independent basis, Debye):
    X=              0.5031    Y=              1.3807    Z=              0.0000  Tot=              1.4695
 Quadrupole moment (field-independent basis, Debye-Ang):
   XX=            -22.4188   YY=            -18.6261   ZZ=            -22.0183
   XY=              3.2944   XZ=             -0.0000   YZ=              0.0000

 Normal termination of Gaussian 16 at Mon Feb 14 22:13:31 2022.
