 Gaussian 16, Revision B.01,
 Gaussian 16:  ES64L-G16RevB.01 20-Dec-2017

 -------------------------------------
 #p SP mp2/aug-cc-pvtz density=current
 -------------------------------------

 -----
 title
 -----
 Symbolic Z-matrix:
 Charge =  0 Multiplicity = 1

                         Standard orientation:
 ---------------------------------------------------------------------
 Center     Atomic      Atomic             Coordinates (Angstroms)
 Number     Number       Type             X           Y           Z
 ---------------------------------------------------------------------
      1          1           0        1.576174    1.675196   -0.000000
      2          8           0        1.473456    0.711681   -0.000000
      3          8           0        0.000000    0.672847    0.000000
      4          7           0       -0.273044   -0.760157    0.000000
      5          8           0       -1.431564   -0.928790    0.000000
 ---------------------------------------------------------------------

 SCF Done:  E(RHF) =  -279.499931677     A.U. after   14 cycles
 E2 =    -0.9466185475D+00 EUMP2 =    -0.28044655022405D+03

 The electronic state is 1-A'.
 Alpha  occ. eigenvalues --  -20.69195 -20.68462 -20.66161 -15.81320  -1.62352
 Alpha  occ. eigenvalues --   -1.48833  -1.25777  -0.94781  -0.77084  -0.75769
 Alpha  occ. eigenvalues --   -0.71016  -0.67939  -0.61865  -0.58673  -0.48858
 Alpha  occ. eigenvalues --   -0.47291
 Alpha virt. eigenvalues --    0.02959   0.07165   0.08544   0.10162   0.13293
 Alpha virt. eigenvalues --    0.13397   0.14398   0.15445   0.17830   0.19435
 Alpha virt. eigenvalues --    0.19989   0.20612   0.21677   0.22923   0.23722

 Mulliken charges:
               1
     1  H    0.251346
     2  O   -0.203890
     3  O   -0.148077
     4  N    0.293258
     5  O   -0.192637
 Sum of Mulliken charges =  -0.00000

 Dipole moment (field-independent basis, Debye):
    X=              0.5117    Y=              1.3439    Z=             -0.0000  Tot=              1.4381
 Quadrupole moment (field-independent basis, Debye-Ang):
   XX=            -22.3643   YY=            -18.6859   ZZ=            -22.0367
   XY=              3.3150   XZ=              0.0000   YZ=             -0.0000

 Normal termination of Gaussian 16 at Mon Feb 14 22:10:28 2022.
