 Gaussian 16, Revision B.01,
 Gaussian 16:  ES64L-G16RevB.01 20-Dec-2017

 -------------------------------------
 #p SP mp2/aug-cc-pvtz density=current
 -------------------------------------

 -----
 title
 -----
 Symbolic Z-matrix:
 Charge =  0 Multiplicity = 1

                         Standard orientation:
 ---------------------------------------------------------------------
 Center     Atomic      Atomic             Coordinates (Angstroms)
 Number     Number       Type             X           Y           Z
 ---------------------------------------------------------------------
      1          1           0        1.521966    1.698904    0.000000
      2          8           0        1.434589    0.733876    0.000000
      3          8           0        0.000000    0.673214    0.000000
      4          7           0       -0.250210   -0.763952   -0.000000
      5          8           0       -1.405901   -0.950995   -0.000000
 ---------------------------------------------------------------------

 SCF Done:  E(RHF) =  -279.503050537     A.U. after   14 cycles
 E2 =    -0.9435039423D+00 EUMP2 =    -0.28044655447889D+03

 The electronic state is 1-A'.
 Alpha  occ. eigenvalues --  -20.68979 -20.68395 -20.65834 -15.81243  -1.62468
 Alpha  occ. eigenvalues --   -1.50348  -1.25098  -0.94834  -0.77489  -0.76076
 Alpha  occ. eigenvalues --   -0.71363  -0.67947  -0.62228  -0.59192  -0.48173
 Alpha  occ. eigenvalues --   -0.47203
 Alpha virt. eigenvalues --    0.02966   0.07170   0.08638   0.10179   0.13394
 Alpha virt. eigenvalues --    0.13476   0.14418   0.15461   0.17821   0.19400
 Alpha virt. eigenvalues --    0.19973   0.20652   0.22237   0.23754   0.24440

 Mulliken charges:
               1
     1  H    0.249184
     2  O   -0.199418
     3  O   -0.145913
     4  N    0.290036
     5  O   -0.193889
 Sum of Mulliken charges =  -0.00000

 Dipole moment (field-independent basis, Debye):
    X=              0.5046    Y=              1.3782    Z=              0.0000  Tot=              1.4677
 Quadrupole moment (field-independent basis, Debye-Ang):
   XX=            -22.5734   YY=            -18.5465   ZZ=            -21.9835
   XY=              3.1941   XZ=             -0.0000   YZ=              0.0000

 Normal termination of Gaussian 16 at Mon Feb 14 22:10:46 2022.
