 Gaussian 16, Revision B.01,
 Gaussian 16:  ES64L-G16RevB.01 20-Dec-2017

 -------------------------------------
 #p SP mp2/aug-cc-pvtz density=current
 -------------------------------------

 -----
 title
 -----
 Symbolic Z-matrix:
 Charge =  0 Multiplicity = 1

                         Standard orientation:
 ---------------------------------------------------------------------
 Center     Atomic      Atomic             Coordinates (Angstroms)
 Number     Number       Type             X           Y           Z
 ---------------------------------------------------------------------
      1          1           0        1.547663    1.673708    0.000000
      2          8           0        1.454060    0.723446    0.000000
      3          8           0       -0.000000    0.673448    0.000000
      4          7           0       -0.261540   -0.761699   -0.000000
      5          8           0       -1.418670   -0.939620   -0.000000
 ---------------------------------------------------------------------

 SCF Done:  E(RHF) =  -279.502172450     A.U. after   14 cycles
 E2 =    -0.9443741011D+00 EUMP2 =    -0.28044654655066D+03

 The electronic state is 1-A'.
 Alpha  occ. eigenvalues --  -20.69127 -20.68457 -20.65886 -15.81313  -1.62436
 Alpha  occ. eigenvalues --   -1.49753  -1.25721  -0.94840  -0.77401  -0.76030
 Alpha  occ. eigenvalues --   -0.71213  -0.68150  -0.62088  -0.59011  -0.48571
 Alpha  occ. eigenvalues --   -0.47289
 Alpha virt. eigenvalues --    0.02989   0.07145   0.08588   0.10168   0.13385
 Alpha virt. eigenvalues --    0.13392   0.14464   0.15507   0.17805   0.19414
 Alpha virt. eigenvalues --    0.19976   0.20637   0.22076   0.23503   0.23725

 Mulliken charges:
               1
     1  H    0.238053
     2  O   -0.189416
     3  O   -0.148064
     4  N    0.292697
     5  O   -0.193270
 Sum of Mulliken charges =  -0.00000

 Dipole moment (field-independent basis, Debye):
    X=              0.5007    Y=              1.3427    Z=              0.0000  Tot=              1.4330
 Quadrupole moment (field-independent basis, Debye-Ang):
   XX=            -22.4627   YY=            -18.6703   ZZ=            -21.9925
   XY=              3.2280   XZ=             -0.0000   YZ=             -0.0000

 Normal termination of Gaussian 16 at Mon Feb 14 22:10:10 2022.
