 Gaussian 16, Revision B.01,
 Gaussian 16:  ES64L-G16RevB.01 20-Dec-2017

 -------------------------------------
 #p SP mp2/aug-cc-pvtz density=current
 -------------------------------------

 -----
 title
 -----
 Symbolic Z-matrix:
 Charge =  0 Multiplicity = 1

                         Standard orientation:
 ---------------------------------------------------------------------
 Center     Atomic      Atomic             Coordinates (Angstroms)
 Number     Number       Type             X           Y           Z
 ---------------------------------------------------------------------
      1          1           0        1.507625    1.692982   -0.000000
      2          8           0        1.453969    0.725493   -0.000000
      3          8           0        0.000000    0.672914    0.000000
      4          7           0       -0.258992   -0.762696   -0.000000
      5          8           0       -1.415804   -0.942670    0.000000
 ---------------------------------------------------------------------

 SCF Done:  E(RHF) =  -279.501160066     A.U. after   14 cycles
 E2 =    -0.9453955541D+00 EUMP2 =    -0.28044655561972D+03

 The electronic state is 1-A'.
 Alpha  occ. eigenvalues --  -20.69064 -20.68427 -20.66087 -15.81279  -1.62415
 Alpha  occ. eigenvalues --   -1.49723  -1.25405  -0.94821  -0.77401  -0.75766
 Alpha  occ. eigenvalues --   -0.71207  -0.67869  -0.62088  -0.59159  -0.48552
 Alpha  occ. eigenvalues --   -0.47254
 Alpha virt. eigenvalues --    0.02990   0.07157   0.08592   0.10163   0.13383
 Alpha virt. eigenvalues --    0.13409   0.14413   0.15466   0.17818   0.19393
 Alpha virt. eigenvalues --    0.19960   0.20641   0.22068   0.23531   0.23735

 Mulliken charges:
               1
     1  H    0.253667
     2  O   -0.201945
     3  O   -0.149063
     4  N    0.290797
     5  O   -0.193455
 Sum of Mulliken charges =  -0.00000

 Dipole moment (field-independent basis, Debye):
    X=              0.4534    Y=              1.3556    Z=              0.0000  Tot=              1.4294
 Quadrupole moment (field-independent basis, Debye-Ang):
   XX=            -22.6635   YY=            -18.5943   ZZ=            -22.0063
   XY=              3.1146   XZ=              0.0000   YZ=              0.0000

 Normal termination of Gaussian 16 at Mon Feb 14 22:12:36 2022.
