 Gaussian 16, Revision B.01,
 Gaussian 16:  ES64L-G16RevB.01 20-Dec-2017

 -------------------------------------
 #p SP mp2/aug-cc-pvtz density=current
 -------------------------------------

 -----
 title
 -----
 Symbolic Z-matrix:
 Charge =  0 Multiplicity = 1

                         Standard orientation:
 ---------------------------------------------------------------------
 Center     Atomic      Atomic             Coordinates (Angstroms)
 Number     Number       Type             X           Y           Z
 ---------------------------------------------------------------------
      1          1           0        1.553276    1.680406   -0.000000
      2          8           0        1.454256    0.716504   -0.000000
      3          8           0       -0.000000    0.672589    0.000000
      4          7           0       -0.267541   -0.761452    0.000000
      5          8           0       -1.414317   -0.932873    0.000000
 ---------------------------------------------------------------------

 SCF Done:  E(RHF) =  -279.503395763     A.U. after   14 cycles
 E2 =    -0.9431430990D+00 EUMP2 =    -0.28044653886185D+03

 The electronic state is 1-A'.
 Alpha  occ. eigenvalues --  -20.68823 -20.68477 -20.65853 -15.81120  -1.63334
 Alpha  occ. eigenvalues --   -1.49579  -1.25327  -0.94655  -0.77419  -0.76217
 Alpha  occ. eigenvalues --   -0.71426  -0.68065  -0.62262  -0.58867  -0.48425
 Alpha  occ. eigenvalues --   -0.47029
 Alpha virt. eigenvalues --    0.02993   0.07514   0.08575   0.10172   0.13374
 Alpha virt. eigenvalues --    0.13410   0.14432   0.15481   0.17847   0.19404
 Alpha virt. eigenvalues --    0.20023   0.20637   0.22118   0.23639   0.23746

 Mulliken charges:
               1
     1  H    0.249876
     2  O   -0.202505
     3  O   -0.149666
     4  N    0.292854
     5  O   -0.190559
 Sum of Mulliken charges =  -0.00000

 Dipole moment (field-independent basis, Debye):
    X=              0.4651    Y=              1.3108    Z=              0.0000  Tot=              1.3909
 Quadrupole moment (field-independent basis, Debye-Ang):
   XX=            -22.4089   YY=            -18.6158   ZZ=            -21.9917
   XY=              3.2945   XZ=              0.0000   YZ=             -0.0000

 Normal termination of Gaussian 16 at Mon Feb 14 22:11:59 2022.
