 Gaussian 16, Revision B.01,
 Gaussian 16:  ES64L-G16RevB.01 20-Dec-2017

 -------------------------------------
 #p SP mp2/aug-cc-pvtz density=current
 -------------------------------------

 -----
 title
 -----
 Symbolic Z-matrix:
 Charge =  0 Multiplicity = 1

                         Standard orientation:
 ---------------------------------------------------------------------
 Center     Atomic      Atomic             Coordinates (Angstroms)
 Number     Number       Type             X           Y           Z
 ---------------------------------------------------------------------
      1          1           0        1.552917    1.667776    0.000000
      2          8           0        1.454241    0.703838   -0.000000
      3          8           0        0.000000    0.659405    0.000000
      4          7           0       -0.261628   -0.745719   -0.000000
      5          8           0       -1.419431   -0.919211    0.000000
 ---------------------------------------------------------------------

 SCF Done:  E(RHF) =  -279.504292912     A.U. after   14 cycles
 E2 =    -0.9422498391D+00 EUMP2 =    -0.28044654275123D+03

 The electronic state is 1-A'.
 Alpha  occ. eigenvalues --  -20.69588 -20.67723 -20.66358 -15.80812  -1.62625
 Alpha  occ. eigenvalues --   -1.49967  -1.26335  -0.94600  -0.77523  -0.76284
 Alpha  occ. eigenvalues --   -0.71721  -0.67785  -0.61888  -0.59092  -0.48815
 Alpha  occ. eigenvalues --   -0.47351
 Alpha virt. eigenvalues --    0.02882   0.07550   0.08646   0.10203   0.13369
 Alpha virt. eigenvalues --    0.13408   0.14349   0.15395   0.17761   0.19420
 Alpha virt. eigenvalues --    0.19997   0.20983   0.21989   0.23410   0.23776

 Mulliken charges:
               1
     1  H    0.250485
     2  O   -0.199578
     3  O   -0.127660
     4  N    0.282858
     5  O   -0.206104
 Sum of Mulliken charges =  -0.00000

 Dipole moment (field-independent basis, Debye):
    X=              0.6435    Y=              1.5285    Z=              0.0000  Tot=              1.6584
 Quadrupole moment (field-independent basis, Debye-Ang):
   XX=            -22.5202   YY=            -18.7399   ZZ=            -21.9677
   XY=              3.2000   XZ=              0.0000   YZ=             -0.0000

 Normal termination of Gaussian 16 at Mon Feb 14 22:11:23 2022.
