 Gaussian 16, Revision B.01,
 Gaussian 16:  ES64L-G16RevB.01 20-Dec-2017

 -------------------------------------
 #p SP mp2/aug-cc-pvtz density=current
 -------------------------------------

 -----
 title
 -----
 Symbolic Z-matrix:
 Charge =  0 Multiplicity = 1

                         Standard orientation:
 ---------------------------------------------------------------------
 Center     Atomic      Atomic             Coordinates (Angstroms)
 Number     Number       Type             X           Y           Z
 ---------------------------------------------------------------------
      1          1           0        1.545437    1.706420    0.000000
      2          8           0        1.453873    0.741780    0.000000
      3          8           0       -0.000000    0.686622    0.000000
      4          7           0       -0.261633   -0.778495    0.000000
      5          8           0       -1.418124   -0.960521    0.000000
 ---------------------------------------------------------------------

 SCF Done:  E(RHF) =  -279.498631625     A.U. after   14 cycles
 E2 =    -0.9479288381D+00 EUMP2 =    -0.28044656046355D+03

 The electronic state is 1-A'.
 Alpha  occ. eigenvalues --  -20.69125 -20.68590 -20.65636 -15.81761  -1.62315
 Alpha  occ. eigenvalues --   -1.49138  -1.24563  -0.95048  -0.77049  -0.75595
 Alpha  occ. eigenvalues --   -0.70715  -0.68085  -0.62184  -0.58780  -0.48205
 Alpha  occ. eigenvalues --   -0.47100
 Alpha virt. eigenvalues --    0.03044   0.06788   0.08537   0.10136   0.13378
 Alpha virt. eigenvalues --    0.13414   0.14470   0.15511   0.17890   0.19398
 Alpha virt. eigenvalues --    0.19966   0.20187   0.22156   0.23667   0.23705

 Mulliken charges:
               1
     1  H    0.249961
     2  O   -0.203613
     3  O   -0.166124
     4  N    0.300162
     5  O   -0.180386
 Sum of Mulliken charges =  -0.00000

 Dipole moment (field-independent basis, Debye):
    X=              0.3754    Y=              1.1888    Z=              0.0000  Tot=              1.2467
 Quadrupole moment (field-independent basis, Debye-Ang):
   XX=            -22.4189   YY=            -18.4891   ZZ=            -22.0524
   XY=              3.3115   XZ=             -0.0000   YZ=             -0.0000

 Normal termination of Gaussian 16 at Mon Feb 14 22:11:04 2022.
