 Gaussian 16, Revision B.01,
 Gaussian 16:  ES64L-G16RevB.01 20-Dec-2017

 -------------------------------------
 #p SP mp2/aug-cc-pvtz density=current
 -------------------------------------

 -----
 title
 -----
 Symbolic Z-matrix:
 Charge =  0 Multiplicity = 1

                         Standard orientation:
 ---------------------------------------------------------------------
 Center     Atomic      Atomic             Coordinates (Angstroms)
 Number     Number       Type             X           Y           Z
 ---------------------------------------------------------------------
      1          1           0        1.548387    1.680462    0.000000
      2          8           0        1.454062    0.723179    0.000000
      3          8           0        0.000000    0.673228   -0.000000
      4          7           0       -0.261586   -0.761910   -0.000000
      5          8           0       -1.418722   -0.939794   -0.000000
 ---------------------------------------------------------------------

 SCF Done:  E(RHF) =  -279.501978421     A.U. after   14 cycles
 E2 =    -0.9447100584D+00 EUMP2 =    -0.28044668847979D+03

 The electronic state is 1-A'.
 Alpha  occ. eigenvalues --  -20.69107 -20.68443 -20.65943 -15.81298  -1.62420
 Alpha  occ. eigenvalues --   -1.49663  -1.25580  -0.94823  -0.77338  -0.75975
 Alpha  occ. eigenvalues --   -0.71196  -0.68045  -0.62067  -0.58977  -0.48547
 Alpha  occ. eigenvalues --   -0.47269
 Alpha virt. eigenvalues --    0.02976   0.07156   0.08591   0.10170   0.13390
 Alpha virt. eigenvalues --    0.13394   0.14437   0.15480   0.17816   0.19416
 Alpha virt. eigenvalues --    0.19978   0.20637   0.22079   0.23523   0.23731

 Mulliken charges:
               1
     1  H    0.244291
     2  O   -0.195628
     3  O   -0.147620
     4  N    0.292220
     5  O   -0.193263
 Sum of Mulliken charges =  -0.00000

 Dipole moment (field-independent basis, Debye):
    X=              0.5045    Y=              1.3517    Z=             -0.0000  Tot=              1.4428
 Quadrupole moment (field-independent basis, Debye-Ang):
   XX=            -22.4659   YY=            -18.6431   ZZ=            -22.0014
   XY=              3.2420   XZ=             -0.0000   YZ=              0.0000

 Normal termination of Gaussian 16 at Mon Feb 14 12:45:02 2022.
