 Gaussian 16, Revision B.01,
 Gaussian 16:  ES64L-G16RevB.01 20-Dec-2017

 -------------------------------------
 #p SP mp2/aug-cc-pvtz density=current
 -------------------------------------

 -----
 title
 -----
 Symbolic Z-matrix:
 Charge =  0 Multiplicity = 1

                         Standard orientation:
 ---------------------------------------------------------------------
 Center     Atomic      Atomic             Coordinates (Angstroms)
 Number     Number       Type             X           Y           Z
 ---------------------------------------------------------------------
      1          1           0        1.529309    1.709450   -0.000000
      2          8           0        1.452834    0.743497   -0.000000
      3          8           0        0.000000    0.665622   -0.000000
      4          7           0       -0.259779   -0.769845    0.000000
      5          8           0       -1.416690   -0.949185    0.000000
 ---------------------------------------------------------------------

 SCF Done:  E(RHF) =  -279.501717244     A.U. after   14 cycles
 E2 =    -0.9449716870D+00 EUMP2 =    -0.28044668893066D+03

 The electronic state is 1-A'.
 Alpha  occ. eigenvalues --  -20.69058 -20.68453 -20.66033 -15.81315  -1.62400
 Alpha  occ. eigenvalues --   -1.49545  -1.25490  -0.94787  -0.77200  -0.75959
 Alpha  occ. eigenvalues --   -0.71164  -0.68091  -0.62073  -0.58866  -0.48514
 Alpha  occ. eigenvalues --   -0.47229
 Alpha virt. eigenvalues --    0.02963   0.07155   0.08596   0.10199   0.13384
 Alpha virt. eigenvalues --    0.13385   0.14395   0.15418   0.17830   0.19428
 Alpha virt. eigenvalues --    0.19991   0.20622   0.22070   0.23529   0.23729

 Mulliken charges:
               1
     1  H    0.251660
     2  O   -0.203709
     3  O   -0.145638
     4  N    0.289964
     5  O   -0.192278
 Sum of Mulliken charges =  -0.00000

 Dipole moment (field-independent basis, Debye):
    X=              0.4822    Y=              1.3685    Z=             -0.0000  Tot=              1.4510
 Quadrupole moment (field-independent basis, Debye-Ang):
   XX=            -22.5772   YY=            -18.5115   ZZ=            -22.0124
   XY=              3.2194   XZ=             -0.0000   YZ=              0.0000

 Normal termination of Gaussian 16 at Mon Feb 14 12:43:41 2022.
