 Gaussian 16, Revision B.01,
 Gaussian 16:  ES64L-G16RevB.01 20-Dec-2017

 -------------------------------------
 #p SP mp2/aug-cc-pvtz density=current
 -------------------------------------

 -----
 title
 -----
 Symbolic Z-matrix:
 Charge =  0 Multiplicity = 1

                         Standard orientation:
 ---------------------------------------------------------------------
 Center     Atomic      Atomic             Coordinates (Angstroms)
 Number     Number       Type             X           Y           Z
 ---------------------------------------------------------------------
      1          1           0        1.549837    1.693970    0.000000
      2          8           0        1.454065    0.722647    0.000000
      3          8           0       -0.000000    0.672790    0.000000
      4          7           0       -0.261678   -0.762333   -0.000000
      5          8           0       -1.418826   -0.940142   -0.000000
 ---------------------------------------------------------------------

 SCF Done:  E(RHF) =  -279.501305347     A.U. after   14 cycles
 E2 =    -0.9453845454D+00 EUMP2 =    -0.28044668989282D+03

 The electronic state is 1-A'.
 Alpha  occ. eigenvalues --  -20.69070 -20.68416 -20.66053 -15.81269  -1.62387
 Alpha  occ. eigenvalues --   -1.49489  -1.25304  -0.94790  -0.77222  -0.75861
 Alpha  occ. eigenvalues --   -0.71163  -0.67828  -0.62025  -0.58909  -0.48498
 Alpha  occ. eigenvalues --   -0.47231
 Alpha virt. eigenvalues --    0.02949   0.07178   0.08598   0.10174   0.13396
 Alpha virt. eigenvalues --    0.13401   0.14377   0.15427   0.17836   0.19419
 Alpha virt. eigenvalues --    0.19983   0.20636   0.22084   0.23562   0.23745

 Mulliken charges:
               1
     1  H    0.255959
     2  O   -0.207292
     3  O   -0.146692
     4  N    0.291267
     5  O   -0.193243
 Sum of Mulliken charges =  -0.00000

 Dipole moment (field-independent basis, Debye):
    X=              0.5120    Y=              1.3698    Z=              0.0000  Tot=              1.4623
 Quadrupole moment (field-independent basis, Debye-Ang):
   XX=            -22.4722   YY=            -18.5883   ZZ=            -22.0192
   XY=              3.2699   XZ=              0.0000   YZ=             -0.0000

 Normal termination of Gaussian 16 at Mon Feb 14 12:45:56 2022.
