 Gaussian 16, Revision B.01,
 Gaussian 16:  ES64L-G16RevB.01 20-Dec-2017

 -------------------------------------
 #p SP mp2/aug-cc-pvtz density=current
 -------------------------------------

 -----
 title
 -----
 Symbolic Z-matrix:
 Charge =  0 Multiplicity = 1

                         Standard orientation:
 ---------------------------------------------------------------------
 Center     Atomic      Atomic             Coordinates (Angstroms)
 Number     Number       Type             X           Y           Z
 ---------------------------------------------------------------------
      1          1           0        1.550067    1.689726    0.000000
      2          8           0        1.454110    0.725513    0.000000
      3          8           0        0.000000    0.676980    0.000000
      4          7           0       -0.262985   -0.757903    0.000000
      5          8           0       -1.417756   -0.950543    0.000000
 ---------------------------------------------------------------------

 SCF Done:  E(RHF) =  -279.501584677     A.U. after   14 cycles
 E2 =    -0.9451041745D+00 EUMP2 =    -0.28044668885108D+03

 The electronic state is 1-A'.
 Alpha  occ. eigenvalues --  -20.69121 -20.68457 -20.66048 -15.81256  -1.62339
 Alpha  occ. eigenvalues --   -1.49632  -1.25504  -0.94787  -0.77320  -0.75892
 Alpha  occ. eigenvalues --   -0.71165  -0.67957  -0.62076  -0.59011  -0.48559
 Alpha  occ. eigenvalues --   -0.47153
 Alpha virt. eigenvalues --    0.02957   0.07200   0.08579   0.10173   0.13400
 Alpha virt. eigenvalues --    0.13400   0.14405   0.15458   0.17818   0.19421
 Alpha virt. eigenvalues --    0.19978   0.20621   0.22082   0.23465   0.23727

 Mulliken charges:
               1
     1  H    0.250289
     2  O   -0.199897
     3  O   -0.148253
     4  N    0.290834
     5  O   -0.192973
 Sum of Mulliken charges =  -0.00000

 Dipole moment (field-independent basis, Debye):
    X=              0.5059    Y=              1.3709    Z=              0.0000  Tot=              1.4613
 Quadrupole moment (field-independent basis, Debye-Ang):
   XX=            -22.4439   YY=            -18.6209   ZZ=            -22.0143
   XY=              3.2753   XZ=              0.0000   YZ=             -0.0000

 Normal termination of Gaussian 16 at Mon Feb 14 12:45:38 2022.
