 Gaussian 16, Revision B.01,
 Gaussian 16:  ES64L-G16RevB.01 20-Dec-2017

 -------------------------------------
 #p SP mp2/aug-cc-pvtz density=current
 -------------------------------------

 -----
 title
 -----
 Symbolic Z-matrix:
 Charge =  0 Multiplicity = 1

                         Standard orientation:
 ---------------------------------------------------------------------
 Center     Atomic      Atomic             Coordinates (Angstroms)
 Number     Number       Type             X           Y           Z
 ---------------------------------------------------------------------
      1          1           0        1.551197    1.683813    0.000000
      2          8           0        1.454163    0.719708    0.000000
      3          8           0        0.000000    0.672798    0.000000
      4          7           0       -0.264586   -0.761791   -0.000000
      5          8           0       -1.416549   -0.936415   -0.000000
 ---------------------------------------------------------------------

 SCF Done:  E(RHF) =  -279.502592918     A.U. after   14 cycles
 E2 =    -0.9440915489D+00 EUMP2 =    -0.28044668446655D+03

 The electronic state is 1-A'.
 Alpha  occ. eigenvalues --  -20.68956 -20.68453 -20.65926 -15.81202  -1.62863
 Alpha  occ. eigenvalues --   -1.49580  -1.25384  -0.94731  -0.77346  -0.76067
 Alpha  occ. eigenvalues --   -0.71298  -0.68003  -0.62157  -0.58906  -0.48475
 Alpha  occ. eigenvalues --   -0.47140
 Alpha virt. eigenvalues --    0.02978   0.07340   0.08585   0.10172   0.13385
 Alpha virt. eigenvalues --    0.13403   0.14420   0.15467   0.17836   0.19411
 Alpha virt. eigenvalues --    0.20002   0.20637   0.22100   0.23590   0.23742

 Mulliken charges:
               1
     1  H    0.250070
     2  O   -0.202044
     3  O   -0.148407
     4  N    0.292321
     5  O   -0.191940
 Sum of Mulliken charges =  -0.00000

 Dipole moment (field-independent basis, Debye):
    X=              0.4869    Y=              1.3359    Z=              0.0000  Tot=              1.4219
 Quadrupole moment (field-independent basis, Debye-Ang):
   XX=            -22.4393   YY=            -18.6158   ZZ=            -22.0010
   XY=              3.2751   XZ=             -0.0000   YZ=             -0.0000

 Normal termination of Gaussian 16 at Mon Feb 14 12:45:20 2022.
