 Gaussian 16, Revision B.01,
 Gaussian 16:  ES64L-G16RevB.01 20-Dec-2017

 -------------------------------------
 #p SP mp2/aug-cc-pvtz density=current
 -------------------------------------

 -----
 title
 -----
 Symbolic Z-matrix:
 Charge =  0 Multiplicity = 1

                         Standard orientation:
 ---------------------------------------------------------------------
 Center     Atomic      Atomic             Coordinates (Angstroms)
 Number     Number       Type             X           Y           Z
 ---------------------------------------------------------------------
      1          1           0        1.519791    1.691470   -0.000000
      2          8           0        1.453997    0.724731    0.000000
      3          8           0        0.000000    0.672936   -0.000000
      4          7           0       -0.259766   -0.762533    0.000000
      5          8           0       -1.416676   -0.941884   -0.000000
 ---------------------------------------------------------------------

 SCF Done:  E(RHF) =  -279.501358722     A.U. after   14 cycles
 E2 =    -0.9452878026D+00 EUMP2 =    -0.28044664652425D+03

 The electronic state is 1-A'.
 Alpha  occ. eigenvalues --  -20.69070 -20.68427 -20.66062 -15.81280  -1.62411
 Alpha  occ. eigenvalues --   -1.49679  -1.25416  -0.94816  -0.77363  -0.75811
 Alpha  occ. eigenvalues --   -0.71198  -0.67890  -0.62075  -0.59097  -0.48543
 Alpha  occ. eigenvalues --   -0.47252
 Alpha virt. eigenvalues --    0.02981   0.07160   0.08593   0.10166   0.13387
 Alpha virt. eigenvalues --    0.13406   0.14411   0.15462   0.17820   0.19400
 Alpha virt. eigenvalues --    0.19966   0.20641   0.22072   0.23535   0.23736

 Mulliken charges:
               1
     1  H    0.252618
     2  O   -0.201777
     3  O   -0.148509
     4  N    0.291072
     5  O   -0.193404
 Sum of Mulliken charges =  -0.00000

 Dipole moment (field-independent basis, Debye):
    X=              0.4697    Y=              1.3575    Z=             -0.0000  Tot=              1.4365
 Quadrupole moment (field-independent basis, Debye-Ang):
   XX=            -22.6073   YY=            -18.5994   ZZ=            -22.0075
   XY=              3.1566   XZ=             -0.0000   YZ=              0.0000

 Normal termination of Gaussian 16 at Tue Feb  8 13:21:54 2022.
