 Gaussian 16, Revision B.01,
 Gaussian 16:  ES64L-G16RevB.01 20-Dec-2017

 -------------------------------------
 #p SP mp2/aug-cc-pvtz density=current
 -------------------------------------

 -----
 title
 -----
 Symbolic Z-matrix:
 Charge =  0 Multiplicity = 1

                         Standard orientation:
 ---------------------------------------------------------------------
 Center     Atomic      Atomic             Coordinates (Angstroms)
 Number     Number       Type             X           Y           Z
 ---------------------------------------------------------------------
      1          1           0        1.528387    1.690313    0.000000
      2          8           0        1.454017    0.724195    0.000000
      3          8           0       -0.000000    0.672955    0.000000
      4          7           0       -0.260313   -0.762416   -0.000000
      5          8           0       -1.417291   -0.941325   -0.000000
 ---------------------------------------------------------------------

 SCF Done:  E(RHF) =  -279.501477049     A.U. after   14 cycles
 E2 =    -0.9452144354D+00 EUMP2 =    -0.28044669148419D+03

 The electronic state is 1-A'.
 Alpha  occ. eigenvalues --  -20.69075 -20.68428 -20.66044 -15.81281  -1.62408
 Alpha  occ. eigenvalues --   -1.49648  -1.25423  -0.94813  -0.77338  -0.75842
 Alpha  occ. eigenvalues --   -0.71192  -0.67905  -0.62067  -0.59052  -0.48537
 Alpha  occ. eigenvalues --   -0.47251
 Alpha virt. eigenvalues --    0.02976   0.07163   0.08593   0.10168   0.13390
 Alpha virt. eigenvalues --    0.13403   0.14410   0.15460   0.17822   0.19405
 Alpha virt. eigenvalues --    0.19970   0.20640   0.22075   0.23538   0.23737

 Mulliken charges:
               1
     1  H    0.251902
     2  O   -0.201691
     3  O   -0.148116
     4  N    0.291268
     5  O   -0.193364
 Sum of Mulliken charges =  -0.00000

 Dipole moment (field-independent basis, Debye):
    X=              0.4811    Y=              1.3587    Z=              0.0000  Tot=              1.4413
 Quadrupole moment (field-independent basis, Debye-Ang):
   XX=            -22.5672   YY=            -18.6036   ZZ=            -22.0084
   XY=              3.1860   XZ=             -0.0000   YZ=              0.0000

 Normal termination of Gaussian 16 at Mon Feb 14 12:40:34 2022.
