 Gaussian 16, Revision B.01,
 Gaussian 16:  ES64L-G16RevB.01 20-Dec-2017

 -------------------------------------
 #p SP mp2/aug-cc-pvtz density=current
 -------------------------------------

 -----
 title
 -----
 Symbolic Z-matrix:
 Charge =  0 Multiplicity = 1

                         Standard orientation:
 ---------------------------------------------------------------------
 Center     Atomic      Atomic             Coordinates (Angstroms)
 Number     Number       Type             X           Y           Z
 ---------------------------------------------------------------------
      1          1           0        1.518757    1.700262    0.000000
      2          8           0        1.432286    0.735152    0.000000
      3          8           0       -0.000000    0.673241    0.000000
      4          7           0       -0.248862   -0.764159   -0.000000
      5          8           0       -1.404376   -0.952287   -0.000000
 ---------------------------------------------------------------------

 SCF Done:  E(RHF) =  -279.503183322     A.U. after   14 cycles
 E2 =    -0.9433238727D+00 EUMP2 =    -0.28044650719431D+03

 The electronic state is 1-A'.
 Alpha  occ. eigenvalues --  -20.68966 -20.68391 -20.65814 -15.81238  -1.62477
 Alpha  occ. eigenvalues --   -1.50441  -1.25057  -0.94837  -0.77515  -0.76095
 Alpha  occ. eigenvalues --   -0.71386  -0.67949  -0.62249  -0.59219  -0.48131
 Alpha  occ. eigenvalues --   -0.47197
 Alpha virt. eigenvalues --    0.02966   0.07171   0.08643   0.10179   0.13394
 Alpha virt. eigenvalues --    0.13484   0.14419   0.15462   0.17820   0.19398
 Alpha virt. eigenvalues --    0.19972   0.20654   0.22248   0.23755   0.24553

 Mulliken charges:
               1
     1  H    0.249057
     2  O   -0.199170
     3  O   -0.145742
     4  N    0.289821
     5  O   -0.193965
 Sum of Mulliken charges =  -0.00000

 Dipole moment (field-independent basis, Debye):
    X=              0.5042    Y=              1.3804    Z=              0.0000  Tot=              1.4696
 Quadrupole moment (field-independent basis, Debye-Ang):
   XX=            -22.5857   YY=            -18.5384   ZZ=            -21.9804
   XY=              3.1866   XZ=              0.0000   YZ=              0.0000

 Normal termination of Gaussian 16 at Mon Feb 14 22:11:04 2022.
