 Gaussian 16, Revision B.01,
 Gaussian 16:  ES64L-G16RevB.01 20-Dec-2017

 -------------------------------------
 #p SP mp2/aug-cc-pvtz density=current
 -------------------------------------

 -----
 title
 -----
 Symbolic Z-matrix:
 Charge =  0 Multiplicity = 1

                         Standard orientation:
 ---------------------------------------------------------------------
 Center     Atomic      Atomic             Coordinates (Angstroms)
 Number     Number       Type             X           Y           Z
 ---------------------------------------------------------------------
      1          1           0        1.502719    1.693549    0.000000
      2          8           0        1.453957    0.725801    0.000000
      3          8           0       -0.000000    0.672906    0.000000
      4          7           0       -0.258679   -0.762760   -0.000000
      5          8           0       -1.415453   -0.942986   -0.000000
 ---------------------------------------------------------------------

 SCF Done:  E(RHF) =  -279.501069573     A.U. after   14 cycles
 E2 =    -0.9454403054D+00 EUMP2 =    -0.28044650987824D+03

 The electronic state is 1-A'.
 Alpha  occ. eigenvalues --  -20.69061 -20.68427 -20.66096 -15.81279  -1.62417
 Alpha  occ. eigenvalues --   -1.49741  -1.25400  -0.94823  -0.77416  -0.75748
 Alpha  occ. eigenvalues --   -0.71210  -0.67859  -0.62093  -0.59183  -0.48555
 Alpha  occ. eigenvalues --   -0.47254
 Alpha virt. eigenvalues --    0.02993   0.07155   0.08591   0.10162   0.13382
 Alpha virt. eigenvalues --    0.13410   0.14415   0.15468   0.17817   0.19390
 Alpha virt. eigenvalues --    0.19957   0.20641   0.22066   0.23528   0.23734

 Mulliken charges:
               1
     1  H    0.254102
     2  O   -0.202029
     3  O   -0.149285
     4  N    0.290686
     5  O   -0.193474
 Sum of Mulliken charges =   0.00000

 Dipole moment (field-independent basis, Debye):
    X=              0.4469    Y=              1.3547    Z=              0.0000  Tot=              1.4265
 Quadrupole moment (field-independent basis, Debye-Ang):
   XX=            -22.6860   YY=            -18.5925   ZZ=            -22.0059
   XY=              3.0976   XZ=              0.0000   YZ=             -0.0000

 Normal termination of Gaussian 16 at Mon Feb 14 22:12:53 2022.
