 Gaussian 16, Revision B.01,
 Gaussian 16:  ES64L-G16RevB.01 20-Dec-2017

 -------------------------------------
 #p SP mp2/aug-cc-pvtz density=current
 -------------------------------------

 -----
 title
 -----
 Symbolic Z-matrix:
 Charge =  0 Multiplicity = 1

                         Standard orientation:
 ---------------------------------------------------------------------
 Center     Atomic      Atomic             Coordinates (Angstroms)
 Number     Number       Type             X           Y           Z
 ---------------------------------------------------------------------
      1          1           0        1.551343    1.692667    0.000000
      2          8           0        1.454170    0.728577   -0.000000
      3          8           0       -0.000000    0.681876    0.000000
      4          7           0       -0.264794   -0.752674   -0.000000
      5          8           0       -1.416393   -0.963446    0.000000
 ---------------------------------------------------------------------

 SCF Done:  E(RHF) =  -279.501321424     A.U. after   14 cycles
 E2 =    -0.9451876996D+00 EUMP2 =    -0.28044650912335D+03

 The electronic state is 1-A'.
 Alpha  occ. eigenvalues --  -20.69162 -20.68490 -20.66107 -15.81221  -1.62261
 Alpha  occ. eigenvalues --   -1.49701  -1.25580  -0.94762  -0.77370  -0.75861
 Alpha  occ. eigenvalues --   -0.71147  -0.67982  -0.62113  -0.59091  -0.48604
 Alpha  occ. eigenvalues --   -0.47029
 Alpha virt. eigenvalues --    0.02949   0.07241   0.08559   0.10173   0.13405
 Alpha virt. eigenvalues --    0.13406   0.14402   0.15464   0.17807   0.19424
 Alpha virt. eigenvalues --    0.19974   0.20600   0.22080   0.23370   0.23715

 Mulliken charges:
               1
     1  H    0.250299
     2  O   -0.197840
     3  O   -0.149540
     4  N    0.289711
     5  O   -0.192630
 Sum of Mulliken charges =  -0.00000

 Dipole moment (field-independent basis, Debye):
    X=              0.5024    Y=              1.3829    Z=              0.0000  Tot=              1.4714
 Quadrupole moment (field-independent basis, Debye-Ang):
   XX=            -22.4129   YY=            -18.6273   ZZ=            -22.0192
   XY=              3.2989   XZ=              0.0000   YZ=             -0.0000

 Normal termination of Gaussian 16 at Mon Feb 14 22:13:48 2022.
