 Gaussian 16, Revision B.01,
 Gaussian 16:  ES64L-G16RevB.01 20-Dec-2017

 -------------------------------------
 #p SP mp2/aug-cc-pvtz density=current
 -------------------------------------

 -----
 title
 -----
 Symbolic Z-matrix:
 Charge =  0 Multiplicity = 1

                         Standard orientation:
 ---------------------------------------------------------------------
 Center     Atomic      Atomic             Coordinates (Angstroms)
 Number     Number       Type             X           Y           Z
 ---------------------------------------------------------------------
      1          1           0        1.550734    1.702318   -0.000000
      2          8           0        1.454067    0.722318    0.000000
      3          8           0        0.000000    0.672518   -0.000000
      4          7           0       -0.261736   -0.762593    0.000000
      5          8           0       -1.418890   -0.940357   -0.000000
 ---------------------------------------------------------------------

 SCF Done:  E(RHF) =  -279.500711904     A.U. after   14 cycles
 E2 =    -0.9458029900D+00 EUMP2 =    -0.28044651489435D+03

 The electronic state is 1-A'.
 Alpha  occ. eigenvalues --  -20.69046 -20.68400 -20.66118 -15.81251  -1.62367
 Alpha  occ. eigenvalues --   -1.49386  -1.25138  -0.94770  -0.77156  -0.75788
 Alpha  occ. eigenvalues --   -0.71143  -0.67691  -0.61999  -0.58867  -0.48469
 Alpha  occ. eigenvalues --   -0.47207
 Alpha virt. eigenvalues --    0.02932   0.07191   0.08601   0.10176   0.13396
 Alpha virt. eigenvalues --    0.13407   0.14338   0.15396   0.17847   0.19422
 Alpha virt. eigenvalues --    0.19986   0.20636   0.22087   0.23586   0.23753

 Mulliken charges:
               1
     1  H    0.262610
     2  O   -0.213973
     3  O   -0.146091
     4  N    0.290682
     5  O   -0.193228
 Sum of Mulliken charges =  -0.00000

 Dipole moment (field-independent basis, Debye):
    X=              0.5165    Y=              1.3808    Z=             -0.0000  Tot=              1.4743
 Quadrupole moment (field-independent basis, Debye-Ang):
   XX=            -22.4761   YY=            -18.5540   ZZ=            -22.0301
   XY=              3.2871   XZ=             -0.0000   YZ=             -0.0000

 Normal termination of Gaussian 16 at Mon Feb 14 22:10:09 2022.
