 Gaussian 16, Revision B.01,
 Gaussian 16:  ES64L-G16RevB.01 20-Dec-2017

 -------------------------------------
 #p SP mp2/aug-cc-pvtz density=current
 -------------------------------------

 -----
 title
 -----
 Symbolic Z-matrix:
 Charge =  0 Multiplicity = 1

                         Standard orientation:
 ---------------------------------------------------------------------
 Center     Atomic      Atomic             Coordinates (Angstroms)
 Number     Number       Type             X           Y           Z
 ---------------------------------------------------------------------
      1          1           0        1.553375    1.665465    0.000000
      2          8           0        1.454261    0.701572    0.000000
      3          8           0        0.000000    0.657800    0.000000
      4          7           0       -0.261627   -0.743781   -0.000000
      5          8           0       -1.419509   -0.916747   -0.000000
 ---------------------------------------------------------------------

 SCF Done:  E(RHF) =  -279.504565618     A.U. after   14 cycles
 E2 =    -0.9419261331D+00 EUMP2 =    -0.28044649175118D+03

 The electronic state is 1-A'.
 Alpha  occ. eigenvalues --  -20.69647 -20.67639 -20.66400 -15.80757  -1.62661
 Alpha  occ. eigenvalues --   -1.50009  -1.26442  -0.94578  -0.77553  -0.76329
 Alpha  occ. eigenvalues --   -0.71790  -0.67767  -0.61869  -0.59108  -0.48847
 Alpha  occ. eigenvalues --   -0.47359
 Alpha virt. eigenvalues --    0.02872   0.07595   0.08651   0.10206   0.13365
 Alpha virt. eigenvalues --    0.13409   0.14342   0.15388   0.17753   0.19420
 Alpha virt. eigenvalues --    0.19999   0.21019   0.21976   0.23395   0.23781

 Mulliken charges:
               1
     1  H    0.250505
     2  O   -0.199343
     3  O   -0.125328
     4  N    0.281785
     5  O   -0.207619
 Sum of Mulliken charges =  -0.00000

 Dipole moment (field-independent basis, Debye):
    X=              0.6595    Y=              1.5480    Z=              0.0000  Tot=              1.6826
 Quadrupole moment (field-independent basis, Debye-Ang):
   XX=            -22.5264   YY=            -18.7543   ZZ=            -21.9626
   XY=              3.1934   XZ=             -0.0000   YZ=             -0.0000

 Normal termination of Gaussian 16 at Mon Feb 14 22:11:41 2022.
