 Gaussian 16, Revision B.01,
 Gaussian 16:  ES64L-G16RevB.01 20-Dec-2017

 -------------------------------------
 #p SP mp2/aug-cc-pvtz density=current
 -------------------------------------

 -----
 title
 -----
 Symbolic Z-matrix:
 Charge =  0 Multiplicity = 1

                         Standard orientation:
 ---------------------------------------------------------------------
 Center     Atomic      Atomic             Coordinates (Angstroms)
 Number     Number       Type             X           Y           Z
 ---------------------------------------------------------------------
      1          1           0       -2.235061    0.419069    0.192805
      2          8           0       -1.599536   -0.281661   -0.016957
      3          8           0       -0.400112    0.541836   -0.022268
      4          7           0        0.662665   -0.456962    0.008673
      5          8           0        1.699199    0.087283    0.007536
 ---------------------------------------------------------------------

 SCF Done:  E(RHF) =  -279.501851496     A.U. after   16 cycles
 E2 =    -0.9451053795D+00 EUMP2 =    -0.28044695687510D+03

 The electronic state is 1-A.
 Alpha  occ. eigenvalues --  -20.69111 -20.68425 -20.66019 -15.81265  -1.62403
 Alpha  occ. eigenvalues --   -1.49587  -1.25445  -0.94810  -0.77240  -0.75959
 Alpha  occ. eigenvalues --   -0.71328  -0.67859  -0.61967  -0.58856  -0.48758
 Alpha  occ. eigenvalues --   -0.47143
 Alpha virt. eigenvalues --    0.02957   0.07163   0.08592   0.10176   0.13205
 Alpha virt. eigenvalues --    0.13516   0.14383   0.15442   0.17806   0.19406
 Alpha virt. eigenvalues --    0.19904   0.20672   0.22079   0.23533   0.23721

 Mulliken charges:
               1
     1  H    0.250060
     2  O   -0.201812
     3  O   -0.146966
     4  N    0.292129
     5  O   -0.193411
 Sum of Mulliken charges =  -0.00000

 Dipole moment (field-independent basis, Debye):
    X=             -1.1957    Y=              0.7613    Z=              0.3656  Tot=              1.4639
 Quadrupole moment (field-independent basis, Debye-Ang):
   XX=            -18.1288   YY=            -23.1341   ZZ=            -21.9041
   XY=             -2.6931   XZ=             -0.9605   YZ=              0.2902

 Normal termination of Gaussian 16 at Mon Feb 14 22:14:59 2022.
