 Gaussian 16, Revision B.01,
 Gaussian 16:  ES64L-G16RevB.01 20-Dec-2017

 -------------------------------------
 #p SP mp2/aug-cc-pvtz density=current
 -------------------------------------

 -----
 title
 -----
 Symbolic Z-matrix:
 Charge =  0 Multiplicity = 1

                         Standard orientation:
 ---------------------------------------------------------------------
 Center     Atomic      Atomic             Coordinates (Angstroms)
 Number     Number       Type             X           Y           Z
 ---------------------------------------------------------------------
      1          1           0        1.547492    1.672113    0.000000
      2          8           0        1.454060    0.723508   -0.000000
      3          8           0       -0.000000    0.673500    0.000000
      4          7           0       -0.261529   -0.761650   -0.000000
      5          8           0       -1.418658   -0.939579   -0.000000
 ---------------------------------------------------------------------

 SCF Done:  E(RHF) =  -279.502203657     A.U. after   14 cycles
 E2 =    -0.9442949250D+00 EUMP2 =    -0.28044649858234D+03

 The electronic state is 1-A'.
 Alpha  occ. eigenvalues --  -20.69131 -20.68460 -20.65873 -15.81316  -1.62440
 Alpha  occ. eigenvalues --   -1.49775  -1.25755  -0.94844  -0.77416  -0.76042
 Alpha  occ. eigenvalues --   -0.71217  -0.68175  -0.62093  -0.59019  -0.48577
 Alpha  occ. eigenvalues --   -0.47293
 Alpha virt. eigenvalues --    0.02992   0.07143   0.08587   0.10167   0.13384
 Alpha virt. eigenvalues --    0.13392   0.14470   0.15514   0.17802   0.19413
 Alpha virt. eigenvalues --    0.19976   0.20637   0.22076   0.23498   0.23723

 Mulliken charges:
               1
     1  H    0.236543
     2  O   -0.187915
     3  O   -0.148166
     4  N    0.292810
     5  O   -0.193272
 Sum of Mulliken charges =  -0.00000

 Dipole moment (field-independent basis, Debye):
    X=              0.4998    Y=              1.3406    Z=              0.0000  Tot=              1.4307
 Quadrupole moment (field-independent basis, Debye-Ang):
   XX=            -22.4620   YY=            -18.6766   ZZ=            -21.9904
   XY=              3.2247   XZ=              0.0000   YZ=             -0.0000

 Normal termination of Gaussian 16 at Mon Feb 14 22:10:27 2022.
