 Gaussian 16, Revision B.01,
 Gaussian 16:  ES64L-G16RevB.01 20-Dec-2017

 -------------------------------------
 #p SP mp2/aug-cc-pvtz density=current
 -------------------------------------

 -----
 title
 -----
 Symbolic Z-matrix:
 Charge =  0 Multiplicity = 1

                         Standard orientation:
 ---------------------------------------------------------------------
 Center     Atomic      Atomic             Coordinates (Angstroms)
 Number     Number       Type             X           Y           Z
 ---------------------------------------------------------------------
      1          1           0        1.595270    1.678752    0.000000
      2          8           0        1.454162    0.720106    0.000000
      3          8           0       -0.000000    0.673178    0.000000
      4          7           0       -0.264569   -0.761414   -0.000000
      5          8           0       -1.422073   -0.936891   -0.000000
 ---------------------------------------------------------------------

 SCF Done:  E(RHF) =  -279.501783470     A.U. after   14 cycles
 E2 =    -0.9447205329D+00 EUMP2 =    -0.28044650400276D+03

 The electronic state is 1-A'.
 Alpha  occ. eigenvalues --  -20.69126 -20.68440 -20.65883 -15.81294  -1.62397
 Alpha  occ. eigenvalues --   -1.49416  -1.25477  -0.94800  -0.77159  -0.76085
 Alpha  occ. eigenvalues --   -0.71155  -0.67998  -0.61999  -0.58689  -0.48489
 Alpha  occ. eigenvalues --   -0.47250
 Alpha virt. eigenvalues --    0.02935   0.07174   0.08595   0.10180   0.13368
 Alpha virt. eigenvalues --    0.13408   0.14412   0.15440   0.17834   0.19443
 Alpha virt. eigenvalues --    0.20003   0.20622   0.22090   0.23537   0.23740

 Mulliken charges:
               1
     1  H    0.247033
     2  O   -0.201859
     3  O   -0.145041
     4  N    0.292806
     5  O   -0.192939
 Sum of Mulliken charges =  -0.00000

 Dipole moment (field-independent basis, Debye):
    X=              0.5676    Y=              1.3621    Z=              0.0000  Tot=              1.4756
 Quadrupole moment (field-independent basis, Debye-Ang):
   XX=            -22.2429   YY=            -18.6534   ZZ=            -22.0149
   XY=              3.4069   XZ=             -0.0000   YZ=             -0.0000

 Normal termination of Gaussian 16 at Mon Feb 14 22:12:35 2022.
