 Gaussian 16, Revision B.01,
 Gaussian 16:  ES64L-G16RevB.01 20-Dec-2017

 -------------------------------------
 #p SP mp2/aug-cc-pvtz density=current
 -------------------------------------

 -----
 title
 -----
 Symbolic Z-matrix:
 Charge =  0 Multiplicity = 1

                         Standard orientation:
 ---------------------------------------------------------------------
 Center     Atomic      Atomic             Coordinates (Angstroms)
 Number     Number       Type             X           Y           Z
 ---------------------------------------------------------------------
      1          1           0        1.590551    1.637475   -0.000000
      2          8           0        1.454874    0.678046   -0.000000
      3          8           0        0.000000    0.689578    0.000000
      4          7           0       -0.264630   -0.745003   -0.000000
      5          8           0       -1.422141   -0.920431    0.000000
 ---------------------------------------------------------------------

 SCF Done:  E(RHF) =  -279.501213665     A.U. after   14 cycles
 E2 =    -0.9452868198D+00 EUMP2 =    -0.28044650048467D+03

 The electronic state is 1-A'.
 Alpha  occ. eigenvalues --  -20.69141 -20.68378 -20.65920 -15.81213  -1.62413
 Alpha  occ. eigenvalues --   -1.49641  -1.25325  -0.94856  -0.77464  -0.75820
 Alpha  occ. eigenvalues --   -0.71214  -0.67567  -0.61980  -0.59111  -0.48540
 Alpha  occ. eigenvalues --   -0.47297
 Alpha virt. eigenvalues --    0.02962   0.07196   0.08590   0.10110   0.13415
 Alpha virt. eigenvalues --    0.13421   0.14436   0.15523   0.17815   0.19387
 Alpha virt. eigenvalues --    0.19959   0.20634   0.22119   0.23555   0.23758

 Mulliken charges:
               1
     1  H    0.246836
     2  O   -0.196320
     3  O   -0.150912
     4  N    0.295618
     5  O   -0.195223
 Sum of Mulliken charges =  -0.00000

 Dipole moment (field-independent basis, Debye):
    X=              0.5646    Y=              1.3401    Z=              0.0000  Tot=              1.4542
 Quadrupole moment (field-independent basis, Debye-Ang):
   XX=            -22.2288   YY=            -18.8494   ZZ=            -22.0058
   XY=              3.3196   XZ=              0.0000   YZ=             -0.0000

 Normal termination of Gaussian 16 at Mon Feb 14 22:13:30 2022.
