 Gaussian 16, Revision B.01,
 Gaussian 16:  ES64L-G16RevB.01 20-Dec-2017

 -------------------------------------
 #p SP mp2/aug-cc-pvtz density=current
 -------------------------------------

 -----
 title
 -----
 Symbolic Z-matrix:
 Charge =  0 Multiplicity = 1

                         Standard orientation:
 ---------------------------------------------------------------------
 Center     Atomic      Atomic             Coordinates (Angstroms)
 Number     Number       Type             X           Y           Z
 ---------------------------------------------------------------------
      1          1           0        1.758260   -0.144615    0.000000
      2          8           0        0.895366   -0.588263    0.000000
      3          7           0       -0.000000    0.523866   -0.000000
      4          8           0       -1.115148    0.147957   -0.000000
 ---------------------------------------------------------------------

 SCF Done:  E(RHF) =  -204.723401858     A.U. after   13 cycles
 E2 =    -0.6979324675D+00 EUMP2 =    -0.20542133432570D+03

 The electronic state is 1-A'.
 Alpha  occ. eigenvalues --  -20.66504 -20.64206 -15.79884  -1.60314  -1.40203
 Alpha  occ. eigenvalues --   -0.94846  -0.78433  -0.72951  -0.68161  -0.62486
 Alpha  occ. eigenvalues --   -0.52822  -0.46236
 Alpha virt. eigenvalues --    0.02801   0.08026   0.09400   0.09752   0.12888
 Alpha virt. eigenvalues --    0.14371   0.15690   0.17206   0.18729   0.19656
 Alpha virt. eigenvalues --    0.20563   0.23356   0.25814   0.29653   0.30783

 Mulliken charges:
               1
     1  H    0.271292
     2  O   -0.270073
     3  N    0.180054
     4  O   -0.181273
 Sum of Mulliken charges =  -0.00000

 Dipole moment (field-independent basis, Debye):
    X=              1.7580    Y=              0.6601    Z=             -0.0000  Tot=              1.8778
 Quadrupole moment (field-independent basis, Debye-Ang):
   XX=            -13.6641   YY=            -18.6851   ZZ=            -16.4555
   XY=              0.5773   XZ=              0.0000   YZ=              0.0000

 Normal termination of Gaussian 16 at Sun Jan 30 15:51:33 2022.
