 Gaussian 16, Revision B.01,
 Gaussian 16:  ES64L-G16RevB.01 20-Dec-2017

 -------------------------------------
 #p SP mp2/aug-cc-pvtz density=current
 -------------------------------------

 -----
 title
 -----
 Symbolic Z-matrix:
 Charge =  0 Multiplicity = 1

                         Standard orientation:
 ---------------------------------------------------------------------
 Center     Atomic      Atomic             Coordinates (Angstroms)
 Number     Number       Type             X           Y           Z
 ---------------------------------------------------------------------
      1          1           0        1.708388    0.445515    0.006246
      2          8           0        1.042119   -0.259784   -0.000691
      3          7           0       -0.172089    0.491355   -0.000873
      4          8           0       -1.105090   -0.225841    0.000674
 ---------------------------------------------------------------------

 SCF Done:  E(RHF) =  -204.723396956     A.U. after   13 cycles
 E2 =    -0.6979562918D+00 EUMP2 =    -0.20542135324791D+03

 The electronic state is 1-A.
 Alpha  occ. eigenvalues --  -20.66531 -20.64238 -15.79876  -1.60279  -1.40264
 Alpha  occ. eigenvalues --   -0.94853  -0.78414  -0.72980  -0.68155  -0.62544
 Alpha  occ. eigenvalues --   -0.52857  -0.46175
 Alpha virt. eigenvalues --    0.02799   0.08045   0.09396   0.09756   0.12889
 Alpha virt. eigenvalues --    0.14365   0.15689   0.17213   0.18723   0.19660
 Alpha virt. eigenvalues --    0.20558   0.23347   0.25791   0.29634   0.30784

 Mulliken charges:
               1
     1  H    0.272139
     2  O   -0.270519
     3  N    0.179684
     4  O   -0.181304
 Sum of Mulliken charges =  -0.00000

 Dipole moment (field-independent basis, Debye):
    X=              1.4407    Y=              1.1992    Z=              0.0108  Tot=              1.8745
 Quadrupole moment (field-independent basis, Debye-Ang):
   XX=            -14.5652   YY=            -17.7852   ZZ=            -16.4579
   XY=              2.0280   XZ=              0.0247   YZ=              0.0105

 Normal termination of Gaussian 16 at Sun Jan 30 15:52:03 2022.
