 Gaussian 16, Revision B.01,
 Gaussian 16:  ES64L-G16RevB.01 20-Dec-2017

 -------------------------------------
 #p SP mp2/aug-cc-pvtz density=current
 -------------------------------------

 -----
 title
 -----
 Symbolic Z-matrix:
 Charge =  0 Multiplicity = 1

                         Standard orientation:
 ---------------------------------------------------------------------
 Center     Atomic      Atomic             Coordinates (Angstroms)
 Number     Number       Type             X           Y           Z
 ---------------------------------------------------------------------
      1          1           0        1.768056   -0.141074    0.000000
      2          8           0        0.896879   -0.590481    0.000000
      3          7           0       -0.000000    0.520428   -0.000000
      4          8           0       -1.117886    0.152741   -0.000000
 ---------------------------------------------------------------------

 SCF Done:  E(RHF) =  -204.722807568     A.U. after   13 cycles
 E2 =    -0.6984587245D+00 EUMP2 =    -0.20542126629206D+03

 The electronic state is 1-A'.
 Alpha  occ. eigenvalues --  -20.66509 -20.64318 -15.79852  -1.60244  -1.40044
 Alpha  occ. eigenvalues --   -0.94752  -0.78251  -0.72951  -0.68130  -0.62407
 Alpha  occ. eigenvalues --   -0.52819  -0.46148
 Alpha virt. eigenvalues --    0.02780   0.08063   0.09401   0.09761   0.12897
 Alpha virt. eigenvalues --    0.14300   0.15696   0.17211   0.18738   0.19668
 Alpha virt. eigenvalues --    0.20562   0.23339   0.25725   0.29596   0.30800

 Mulliken charges:
               1
     1  H    0.279438
     2  O   -0.277400
     3  N    0.179437
     4  O   -0.181475
 Sum of Mulliken charges =  -0.00000

 Dipole moment (field-independent basis, Debye):
    X=              1.7700    Y=              0.6565    Z=              0.0000  Tot=              1.8878
 Quadrupole moment (field-independent basis, Debye-Ang):
   XX=            -13.6167   YY=            -18.7089   ZZ=            -16.4710
   XY=              0.5867   XZ=              0.0000   YZ=              0.0000

 Normal termination of Gaussian 16 at Mon Jan 31 11:39:23 2022.
