 Gaussian 16, Revision B.01,
 Gaussian 16:  ES64L-G16RevB.01 20-Dec-2017

 -------------------------------------
 #p SP mp2/aug-cc-pvtz density=current
 -------------------------------------

 -----
 title
 -----
 Symbolic Z-matrix:
 Charge =  0 Multiplicity = 1

                         Standard orientation:
 ---------------------------------------------------------------------
 Center     Atomic      Atomic             Coordinates (Angstroms)
 Number     Number       Type             X           Y           Z
 ---------------------------------------------------------------------
      1          1           0        1.752941   -0.118445   -0.000000
      2          8           0        0.895085   -0.571757   -0.000000
      3          7           0        0.000000    0.514808   -0.000000
      4          8           0       -1.114203    0.136105    0.000000
 ---------------------------------------------------------------------

 SCF Done:  E(RHF) =  -204.725082933     A.U. after   13 cycles
 E2 =    -0.6961411235D+00 EUMP2 =    -0.20542122405615D+03

 The electronic state is 1-A'.
 Alpha  occ. eigenvalues --  -20.66058 -20.64561 -15.79586  -1.60436  -1.40874
 Alpha  occ. eigenvalues --   -0.94817  -0.78796  -0.73108  -0.68440  -0.62390
 Alpha  occ. eigenvalues --   -0.52841  -0.46196
 Alpha virt. eigenvalues --    0.02750   0.08295   0.09448   0.09763   0.12869
 Alpha virt. eigenvalues --    0.14286   0.15711   0.17177   0.18686   0.19677
 Alpha virt. eigenvalues --    0.20623   0.23441   0.25802   0.29589   0.31560

 Mulliken charges:
               1
     1  H    0.274000
     2  O   -0.257044
     3  N    0.172314
     4  O   -0.189269
 Sum of Mulliken charges =  -0.00000

 Dipole moment (field-independent basis, Debye):
    X=              1.8735    Y=              0.6075    Z=             -0.0000  Tot=              1.9695
 Quadrupole moment (field-independent basis, Debye-Ang):
   XX=            -13.6574   YY=            -18.6837   ZZ=            -16.4272
   XY=              0.6039   XZ=              0.0000   YZ=              0.0000

 Normal termination of Gaussian 16 at Mon Jan 31 11:55:32 2022.
