 Gaussian 16, Revision B.01,
 Gaussian 16:  ES64L-G16RevB.01 20-Dec-2017

 -------------------------------------
 #p SP mp2/aug-cc-pvtz density=current
 -------------------------------------

 -----
 title
 -----
 Symbolic Z-matrix:
 Charge =  0 Multiplicity = 1

                         Standard orientation:
 ---------------------------------------------------------------------
 Center     Atomic      Atomic             Coordinates (Angstroms)
 Number     Number       Type             X           Y           Z
 ---------------------------------------------------------------------
      1          1           0       -1.708344    0.445468    0.012492
      2          8           0       -1.042122   -0.259774   -0.001382
      3          7           0        0.172092    0.491355   -0.001745
      4          8           0        1.105085   -0.225845    0.001348
 ---------------------------------------------------------------------

 SCF Done:  E(RHF) =  -204.723393928     A.U. after   13 cycles
 E2 =    -0.6979551734D+00 EUMP2 =    -0.20542134910104D+03

 The electronic state is 1-A.
 Alpha  occ. eigenvalues --  -20.66531 -20.64238 -15.79876  -1.60279  -1.40264
 Alpha  occ. eigenvalues --   -0.94853  -0.78414  -0.72980  -0.68156  -0.62543
 Alpha  occ. eigenvalues --   -0.52857  -0.46175
 Alpha virt. eigenvalues --    0.02799   0.08045   0.09396   0.09756   0.12889
 Alpha virt. eigenvalues --    0.14365   0.15689   0.17213   0.18723   0.19660
 Alpha virt. eigenvalues --    0.20558   0.23347   0.25791   0.29633   0.30785

 Mulliken charges:
               1
     1  H    0.272136
     2  O   -0.270522
     3  N    0.179683
     4  O   -0.181297
 Sum of Mulliken charges =  -0.00000

 Dipole moment (field-independent basis, Debye):
    X=             -1.4405    Y=              1.1991    Z=              0.0215  Tot=              1.8744
 Quadrupole moment (field-independent basis, Debye-Ang):
   XX=            -14.5656   YY=            -17.7854   ZZ=            -16.4575
   XY=             -2.0278   XZ=             -0.0493   YZ=              0.0209

 Normal termination of Gaussian 16 at Mon Jan 31 11:40:40 2022.
