 Gaussian 16, Revision B.01,
 Gaussian 16:  ES64L-G16RevB.01 20-Dec-2017

 -------------------------------------
 #p SP mp2/aug-cc-pvtz density=current
 -------------------------------------

 -----
 title
 -----
 Symbolic Z-matrix:
 Charge =  0 Multiplicity = 1

                         Standard orientation:
 ---------------------------------------------------------------------
 Center     Atomic      Atomic             Coordinates (Angstroms)
 Number     Number       Type             X           Y           Z
 ---------------------------------------------------------------------
      1          1           0        1.762326   -0.143584    0.000000
      2          8           0        0.902169   -0.592515    0.000000
      3          7           0       -0.000000    0.514103   -0.000000
      4          8           0       -1.122460    0.160623   -0.000000
 ---------------------------------------------------------------------

 SCF Done:  E(RHF) =  -204.723262002     A.U. after   13 cycles
 E2 =    -0.6980125922D+00 EUMP2 =    -0.20542127459379D+03

 The electronic state is 1-A'.
 Alpha  occ. eigenvalues --  -20.66584 -20.64302 -15.79857  -1.60210  -1.40382
 Alpha  occ. eigenvalues --   -0.94868  -0.78378  -0.73037  -0.68143  -0.62658
 Alpha  occ. eigenvalues --   -0.52925  -0.46050
 Alpha virt. eigenvalues --    0.02794   0.08081   0.09387   0.09764   0.12892
 Alpha virt. eigenvalues --    0.14352   0.15687   0.17227   0.18711   0.19668
 Alpha virt. eigenvalues --    0.20549   0.23327   0.25745   0.29596   0.30775

 Mulliken charges:
               1
     1  H    0.273796
     2  O   -0.271393
     3  N    0.179016
     4  O   -0.181419
 Sum of Mulliken charges =  -0.00000

 Dipole moment (field-independent basis, Debye):
    X=              1.7522    Y=              0.6465    Z=              0.0000  Tot=              1.8676
 Quadrupole moment (field-independent basis, Debye-Ang):
   XX=            -13.6275   YY=            -18.7257   ZZ=            -16.4629
   XY=              0.5861   XZ=             -0.0000   YZ=              0.0000

 Normal termination of Gaussian 16 at Mon Jan 31 11:40:29 2022.
