 Gaussian 16, Revision B.01,
 Gaussian 16:  ES64L-G16RevB.01 20-Dec-2017

 -------------------------------------
 #p SP mp2/aug-cc-pvtz density=current
 -------------------------------------

 -----
 title
 -----
 Symbolic Z-matrix:
 Charge =  0 Multiplicity = 1

                         Standard orientation:
 ---------------------------------------------------------------------
 Center     Atomic      Atomic             Coordinates (Angstroms)
 Number     Number       Type             X           Y           Z
 ---------------------------------------------------------------------
      1          1           0        1.773827   -0.175433    0.000000
      2          8           0        0.896337   -0.589462    0.000000
      3          7           0       -0.000000    0.521884    0.000000
      4          8           0       -1.118066    0.154743    0.000000
 ---------------------------------------------------------------------

 SCF Done:  E(RHF) =  -204.723546710     A.U. after   13 cycles
 E2 =    -0.6976974331D+00 EUMP2 =    -0.20542124414276D+03

 The electronic state is 1-A'.
 Alpha  occ. eigenvalues --  -20.66539 -20.64143 -15.79893  -1.60247  -1.40141
 Alpha  occ. eigenvalues --   -0.94971  -0.78488  -0.72895  -0.68120  -0.62379
 Alpha  occ. eigenvalues --   -0.52821  -0.46147
 Alpha virt. eigenvalues --    0.02786   0.08073   0.09410   0.09784   0.12916
 Alpha virt. eigenvalues --    0.14360   0.15679   0.17184   0.18704   0.19698
 Alpha virt. eigenvalues --    0.20575   0.23321   0.25891   0.29618   0.30796

 Mulliken charges:
               1
     1  H    0.268292
     2  O   -0.270060
     3  N    0.181476
     4  O   -0.179708
 Sum of Mulliken charges =  -0.00000

 Dipole moment (field-independent basis, Debye):
    X=              1.7820    Y=              0.6215    Z=             -0.0000  Tot=              1.8873
 Quadrupole moment (field-independent basis, Debye-Ang):
   XX=            -13.5295   YY=            -18.7152   ZZ=            -16.4605
   XY=              0.4733   XZ=             -0.0000   YZ=              0.0000

 Normal termination of Gaussian 16 at Mon Jan 31 11:56:14 2022.
