 Gaussian 16, Revision B.01,
 Gaussian 16:  ES64L-G16RevB.01 20-Dec-2017

 -------------------------------------
 #p SP mp2/aug-cc-pvtz density=current
 -------------------------------------

 -----
 title
 -----
 Symbolic Z-matrix:
 Charge =  0 Multiplicity = 1

                         Standard orientation:
 ---------------------------------------------------------------------
 Center     Atomic      Atomic             Coordinates (Angstroms)
 Number     Number       Type             X           Y           Z
 ---------------------------------------------------------------------
      1          1           0       -1.742830   -0.150539    0.000000
      2          8           0       -0.899246   -0.587992    0.000000
      3          7           0        0.000000    0.521002    0.000000
      4          8           0        1.117100    0.150933   -0.000000
 ---------------------------------------------------------------------

 SCF Done:  E(RHF) =  -204.724017650     A.U. after   13 cycles
 E2 =    -0.6969580170D+00 EUMP2 =    -0.20542097566688D+03

 The electronic state is 1-A'.
 Alpha  occ. eigenvalues --  -20.66575 -20.64073 -15.79924  -1.60354  -1.40723
 Alpha  occ. eigenvalues --   -0.95065  -0.78743  -0.73039  -0.68207  -0.62811
 Alpha  occ. eigenvalues --   -0.52934  -0.46232
 Alpha virt. eigenvalues --    0.02835   0.08008   0.09386   0.09745   0.12874
 Alpha virt. eigenvalues --    0.14485   0.15674   0.17218   0.18690   0.19644
 Alpha virt. eigenvalues --    0.20551   0.23361   0.25919   0.29714   0.30749

 Mulliken charges:
               1
     1  H    0.255886
     2  O   -0.255239
     3  N    0.180361
     4  O   -0.181008
 Sum of Mulliken charges =  -0.00000

 Dipole moment (field-independent basis, Debye):
    X=             -1.7282    Y=              0.6540    Z=              0.0000  Tot=              1.8478
 Quadrupole moment (field-independent basis, Debye-Ang):
   XX=            -13.7204   YY=            -18.6779   ZZ=            -16.4317
   XY=             -0.5680   XZ=              0.0000   YZ=             -0.0000

 Normal termination of Gaussian 16 at Mon Jan 31 11:55:15 2022.
