 Gaussian 16, Revision B.01,
 Gaussian 16:  ES64L-G16RevB.01 20-Dec-2017

 -------------------------------------
 #p SP mp2/aug-cc-pvtz density=current
 -------------------------------------

 -----
 title
 -----
 Symbolic Z-matrix:
 Charge =  0 Multiplicity = 1

                         Standard orientation:
 ---------------------------------------------------------------------
 Center     Atomic      Atomic             Coordinates (Angstroms)
 Number     Number       Type             X           Y           Z
 ---------------------------------------------------------------------
      1          1           0        1.766051   -0.169761   -0.000000
      2          8           0        0.900124   -0.607459   -0.000000
      3          7           0        0.000000    0.526472    0.000000
      4          8           0       -1.120880    0.168015    0.000000
 ---------------------------------------------------------------------

 SCF Done:  E(RHF) =  -204.721428854     A.U. after   13 cycles
 E2 =    -0.6998093490D+00 EUMP2 =    -0.20542123820328D+03

 The electronic state is 1-A'.
 Alpha  occ. eigenvalues --  -20.66997 -20.63916 -15.80167  -1.60185  -1.39638
 Alpha  occ. eigenvalues --   -0.94912  -0.78047  -0.72872  -0.67916  -0.62672
 Alpha  occ. eigenvalues --   -0.52842  -0.46136
 Alpha virt. eigenvalues --    0.02847   0.07797   0.09341   0.09748   0.12907
 Alpha virt. eigenvalues --    0.14440   0.15663   0.17248   0.18762   0.19642
 Alpha virt. eigenvalues --    0.20494   0.23241   0.25774   0.29679   0.29906

 Mulliken charges:
               1
     1  H    0.270286
     2  O   -0.284047
     3  N    0.187058
     4  O   -0.173296
 Sum of Mulliken charges =  -0.00000

 Dipole moment (field-independent basis, Debye):
    X=              1.6387    Y=              0.7082    Z=              0.0000  Tot=              1.7852
 Quadrupole moment (field-independent basis, Debye-Ang):
   XX=            -13.6474   YY=            -18.7133   ZZ=            -16.4886
   XY=              0.5586   XZ=              0.0000   YZ=             -0.0000

 Normal termination of Gaussian 16 at Mon Jan 31 11:55:41 2022.
