 Gaussian 16, Revision B.01,
 Gaussian 16:  ES64L-G16RevB.01 20-Dec-2017

 -------------------------------------
 #p SP mp2/aug-cc-pvtz density=current
 -------------------------------------

 -----
 title
 -----
 Symbolic Z-matrix:
 Charge =  0 Multiplicity = 1

                         Standard orientation:
 ---------------------------------------------------------------------
 Center     Atomic      Atomic             Coordinates (Angstroms)
 Number     Number       Type             X           Y           Z
 ---------------------------------------------------------------------
      1          1           0        1.776475   -0.137945   -0.000000
      2          8           0        0.896088   -0.591310   -0.000000
      3          7           0       -0.000000    0.520237   -0.000000
      4          8           0       -1.118148    0.153346    0.000000
 ---------------------------------------------------------------------

 SCF Done:  E(RHF) =  -204.722046617     A.U. after   13 cycles
 E2 =    -0.6989624277D+00 EUMP2 =    -0.20542100904425D+03

 The electronic state is 1-A'.
 Alpha  occ. eigenvalues --  -20.66488 -20.64395 -15.79829  -1.60209  -1.39831
 Alpha  occ. eigenvalues --   -0.94654  -0.78090  -0.72922  -0.68105  -0.62268
 Alpha  occ. eigenvalues --   -0.52782  -0.46120
 Alpha virt. eigenvalues --    0.02761   0.08080   0.09405   0.09767   0.12904
 Alpha virt. eigenvalues --    0.14231   0.15703   0.17209   0.18753   0.19676
 Alpha virt. eigenvalues --    0.20566   0.23331   0.25658   0.29559   0.30816

 Mulliken charges:
               1
     1  H    0.286160
     2  O   -0.283754
     3  N    0.179251
     4  O   -0.181656
 Sum of Mulliken charges =  -0.00000

 Dipole moment (field-independent basis, Debye):
    X=              1.7838    Y=              0.6574    Z=             -0.0000  Tot=              1.9010
 Quadrupole moment (field-independent basis, Debye-Ang):
   XX=            -13.5815   YY=            -18.7190   ZZ=            -16.4839
   XY=              0.5932   XZ=              0.0000   YZ=              0.0000

 Normal termination of Gaussian 16 at Mon Jan 31 11:55:24 2022.
