 Gaussian 16, Revision B.01,
 Gaussian 16:  ES64L-G16RevB.01 20-Dec-2017

 ------------------------------------------------------
 #p freq opt=(z-matrix) mp2/aug-cc-pvtz density=current
 ------------------------------------------------------

 -----
 title
 -----
 Symbolic Z-matrix:
 Charge =  0 Multiplicity = 1

 SCF Done:  E(RHF) =  -204.723337123     A.U. after   13 cycles
 E2 =    -0.6954759988D+00 EUMP2 =    -0.20541881312139D+03
 Optimization completed.
    -- Stationary point found.
 SCF Done:  E(RHF) =  -204.723397966     A.U. after   11 cycles
 E2 =    -0.6979566604D+00 EUMP2 =    -0.20542135462607D+03
 Optimization completed.
 SCF Done:  E(RHF) =  -204.718851319     A.U. after   11 cycles
 E2 =    -0.7004822139D+00 EUMP2 =    -0.20541933353330D+03
    -- Stationary point found.

 1\1\GINC-N2096\Scan\RMP2-FC\Aug-CC-pVTZ\H1N1O2\CGAVINH\18-Jan-2022\1\\
 #p freq opt=(z-matrix) mp2/aug-cc-pvtz density=current\\title\\0,1\H\O
 ,1,r1\N,2,r2,1,a1\O,3,r3,2,a2,1,d1,0\\r1=1.02026274,s,2,0.05\r2=1.4277
 6435,s,-1000,0.\r3=1.17680217,s,-1000,0.\a1=101.62778538,s,-1000,0.\a2
 =110.70859147,s,-1000,0.\d1=180.,s,-1000,0.\\Version=ES64L-G16RevB.01\
 State=1-A'\HF=-204.7233371,-204.723398,-204.7188513\MP2=-205.4188131,-
 205.4213546,-205.4193335\RMSD=5.242e-09,6.734e-09,7.039e-09\PG=CS [SG(
 H1N1O2)]\\@

 Normal termination of Gaussian 16 at Tue Jan 18 14:05:52 2022.

 ----------------------------------------------------------------------
 #P Geom=AllCheck Guess=TCheck SCRF=Check GenChk RMP2(FC)/Aug-CC-pVTZ F
 req
 ----------------------------------------------------------------------

 Structure from the checkpoint file:  "/gscratch/ilahie/mccoygrp/coire_hoono/hono/hono_r1_pert.chk"
 -----
 title
 -----
 Charge =  0 Multiplicity = 1

                         Standard orientation:
 ---------------------------------------------------------------------
 Center     Atomic      Atomic             Coordinates (Angstroms)
 Number     Number       Type             X           Y           Z
 ---------------------------------------------------------------------
      1          1           0       -1.801764   -0.128636   -0.000000
      2          8           0       -0.893709   -0.593795   -0.000000
      3          7           0       -0.000000    0.519666    0.000000
      4          8           0        1.118930    0.155167    0.000000
 ---------------------------------------------------------------------

 SCF Done:  E(RHF) =  -204.718851319     A.U. after    1 cycles
 E2 =    -0.7004822187D+00 EUMP2 =    -0.20541933353802D+03
 E2 =    -0.7004822187D+00 EUMP2 =    -0.20541933353802D+03

 The electronic state is 1-A'.
 Alpha  occ. eigenvalues --  -20.66426 -20.64615 -15.79760  -1.60111  -1.39229
 Alpha  occ. eigenvalues --   -0.94376  -0.77616  -0.72837  -0.68032  -0.61836
 Alpha  occ. eigenvalues --   -0.52674  -0.46040
 Alpha virt. eigenvalues --    0.02700   0.08133   0.09417   0.09784   0.12926
 Alpha virt. eigenvalues --    0.14006   0.15722   0.17205   0.18794   0.19699
 Alpha virt. eigenvalues --    0.20580   0.23302   0.25451   0.29454   0.30861

 Mulliken charges:
               1
     1  H    0.302837
     2  O   -0.299613
     3  N    0.179045
     4  O   -0.182269
 Sum of Mulliken charges =  -0.00000

 Dipole moment (field-independent basis, Debye):
    X=             -1.8244    Y=              0.6603    Z=              0.0000  Tot=              1.9402
 Quadrupole moment (field-independent basis, Debye-Ang):
   XX=            -13.4747   YY=            -18.7482   ZZ=            -16.5221
   XY=             -0.6132   XZ=             -0.0000   YZ=             -0.0000

  Exact polarizability:  30.004   3.509  19.200  -0.000   0.000  14.762
 Approx polarizability:  24.741   1.222  15.676   0.000   0.000  12.772

                      1                      2                      3
                     A'                     A'                     A"
 Frequencies --    620.9260               818.6820               912.1860
 Red. masses --     13.2185                 7.3556                 1.1721
 Frc consts  --      3.0027                 2.9047                 0.5746
 IR Inten    --    204.6015               155.6267                96.1727

                      4                      5                      6
                     A'                     A'                     A'
 Frequencies --   1405.4401              1666.9251              3152.3466
 Red. masses --      1.2612                 7.5733                 1.0663
 Frc consts  --      1.4678                12.3984                 6.2431
 IR Inten    --    198.9451                90.6924                83.4117

 - Thermochemistry -
 -------------------
 Temperature   298.150 Kelvin.  Pressure   1.00000 Atm.
 Atom     1 has atomic number  1 and mass   1.00783

 Molecular mass:    47.00073 amu.
 Principal axes and moments of inertia in atomic units:
                           1         2         3
     Eigenvalues --    19.61571 144.03765 163.65337
           X            0.93581  -0.35252   0.00000
           Y            0.35252   0.93581   0.00000
           Z            0.00000  -0.00000   1.00000
 This molecule is an asymmetric top.
 Rotational symmetry number  1.
 Rotational temperatures (Kelvin)      4.41554     0.60133     0.52925
 Rotational constants (GHZ):          92.00487    12.52965    11.02783
 Zero-point vibrational energy      51298.9 (Joules/Mol)
                                   12.26073 (Kcal/Mol)
 Vibrational temperatures:    893.37  1177.90  1312.43  2022.11  2398.33
          (Kelvin)           4535.52

 Zero-point correction=                           0.019539 (Hartree/Particle)
 Thermal correction to Energy=                    0.022655
 Thermal correction to Enthalpy=                  0.023599
 Thermal correction to Gibbs Free Energy=        -0.004432
 Sum of electronic and zero-point Energies=           -205.399795
 Sum of electronic and thermal Energies=              -205.396679
 Sum of electronic and thermal Enthalpies=            -205.395735
 Sum of electronic and thermal Free Energies=         -205.423765

                     E (Thermal)             CV                S
                      KCal/Mol        Cal/Mol-Kelvin    Cal/Mol-Kelvin
 Total                   14.216              8.199             58.995
 Electronic               0.000              0.000              0.000
 Translational            0.889              2.981             37.467
 Rotational               0.889              2.981             20.764
 Vibrational             12.438              2.237              0.764

 Optimization completed.
    -- Stationary point found.

 1\1\GINC-N2096\Freq\RMP2-FC\Aug-CC-pVTZ\H1N1O2\CGAVINH\18-Jan-2022\1\\
 #P Geom=AllCheck Guess=TCheck SCRF=Check GenChk RMP2(FC)/Aug-CC-pVTZ F
 req\\title\\0,1\H\O,1,r1\N,2,r2,1,a1\O,3,r3,2,a2,1,d1,0\\r1=1.02026274
 \r2=1.42776435\r3=1.17680217\a1=101.62778538\a2=110.70859147\d1=180.\\
 Version=ES64L-G16RevB.01\State=1-A'\HF=-204.7188513\MP2=-205.4193335\R
 MSD=7.421e-10\RMSF=1.633e-02\ZeroPoint=0.0195387\Thermal=0.0226545\Dip
 ole=-0.0960286,0.,-0.7572822\DipoleDeriv=0.247463,0.,0.0499081,0.,0.32
 95447,0.,0.0792672,0.,0.2616713,-1.4250165,0.,-0.876779,0.,-0.2995958,

 Normal termination of Gaussian 16 at Tue Jan 18 14:07:26 2022.
