 Gaussian 16, Revision B.01,
 Gaussian 16:  ES64L-G16RevB.01 20-Dec-2017

 -------------------------------------
 #p SP mp2/aug-cc-pvtz density=current
 -------------------------------------

 -----
 title
 -----
 Symbolic Z-matrix:
 Charge =  0 Multiplicity = 1

                         Standard orientation:
 ---------------------------------------------------------------------
 Center     Atomic      Atomic             Coordinates (Angstroms)
 Number     Number       Type             X           Y           Z
 ---------------------------------------------------------------------
      1          1           0        1.760998   -0.143872   -0.000000
      2          8           0        0.899937   -0.591069   -0.000000
      3          7           0       -0.000000    0.517364   -0.000000
      4          8           0       -1.120062    0.156359    0.000000
 ---------------------------------------------------------------------

 SCF Done:  E(RHF) =  -204.723351140     A.U. after   13 cycles
 E2 =    -0.6979833812D+00 EUMP2 =    -0.20542133452096D+03

 The electronic state is 1-A'.
 Alpha  occ. eigenvalues --  -20.66558 -20.64270 -15.79867  -1.60244  -1.40324
 Alpha  occ. eigenvalues --   -0.94860  -0.78396  -0.73009  -0.68149  -0.62601
 Alpha  occ. eigenvalues --   -0.52891  -0.46114
 Alpha virt. eigenvalues --    0.02797   0.08063   0.09392   0.09760   0.12891
 Alpha virt. eigenvalues --    0.14358   0.15689   0.17220   0.18717   0.19664
 Alpha virt. eigenvalues --    0.20553   0.23337   0.25768   0.29615   0.30781

 Mulliken charges:
               1
     1  H    0.272975
     2  O   -0.270959
     3  N    0.179339
     4  O   -0.181355
 Sum of Mulliken charges =  -0.00000

 Dipole moment (field-independent basis, Debye):
    X=              1.7542    Y=              0.6510    Z=             -0.0000  Tot=              1.8711
 Quadrupole moment (field-independent basis, Debye-Ang):
   XX=            -13.6393   YY=            -18.7123   ZZ=            -16.4604
   XY=              0.5833   XZ=             -0.0000   YZ=              0.0000

 Normal termination of Gaussian 16 at Sun Jan 30 15:51:42 2022.
