 Gaussian 16, Revision B.01,
 Gaussian 16:  ES64L-G16RevB.01 20-Dec-2017

 -------------------------------------
 #p SP mp2/aug-cc-pvtz density=current
 -------------------------------------

 -----
 title
 -----
 Symbolic Z-matrix:
 Charge =  0 Multiplicity = 1

                         Standard orientation:
 ---------------------------------------------------------------------
 Center     Atomic      Atomic             Coordinates (Angstroms)
 Number     Number       Type             X           Y           Z
 ---------------------------------------------------------------------
      1          1           0        1.575768    1.655756   -0.000000
      2          8           0        1.454879    0.694351    0.000000
      3          8           0       -0.000000    0.683481   -0.000000
      4          7           0       -0.263708   -0.751269    0.000000
      5          8           0       -1.421105   -0.927442   -0.000000
 ---------------------------------------------------------------------

 SCF Done:  E(RHF) =  -279.501455954     A.U. after   14 cycles
 E2 =    -0.9451869227D+00 EUMP2 =    -0.28044664287721D+03

 The electronic state is 1-A'.
 Alpha  occ. eigenvalues --  -20.69124 -20.68397 -20.65949 -15.81239  -1.62409
 Alpha  occ. eigenvalues --   -1.49617  -1.25369  -0.94837  -0.77394  -0.75857
 Alpha  occ. eigenvalues --   -0.71201  -0.67707  -0.62005  -0.59050  -0.48534
 Alpha  occ. eigenvalues --   -0.47280
 Alpha virt. eigenvalues --    0.02962   0.07185   0.08592   0.10133   0.13408
 Alpha virt. eigenvalues --    0.13412   0.14426   0.15499   0.17819   0.19399
 Alpha virt. eigenvalues --    0.19967   0.20640   0.22104   0.23553   0.23751

 Mulliken charges:
               1
     1  H    0.248142
     2  O   -0.198341
     3  O   -0.149480
     4  N    0.294211
     5  O   -0.194532
 Sum of Mulliken charges =  -0.00000

 Dipole moment (field-independent basis, Debye):
    X=              0.5442    Y=              1.3482    Z=             -0.0000  Tot=              1.4539
 Quadrupole moment (field-independent basis, Debye-Ang):
   XX=            -22.3167   YY=            -18.7635   ZZ=            -22.0075
   XY=              3.2991   XZ=             -0.0000   YZ=              0.0000

 Normal termination of Gaussian 16 at Tue Feb  8 13:24:00 2022.
