 Gaussian 16, Revision B.01,
 Gaussian 16:  ES64L-G16RevB.01 20-Dec-2017

 -------------------------------------
 #p SP mp2/aug-cc-pvtz density=current
 -------------------------------------

 -----
 title
 -----
 Symbolic Z-matrix:
 Charge =  0 Multiplicity = 1

                         Standard orientation:
 ---------------------------------------------------------------------
 Center     Atomic      Atomic             Coordinates (Angstroms)
 Number     Number       Type             X           Y           Z
 ---------------------------------------------------------------------
      1          1           0        1.550137    1.696767    0.000000
      2          8           0        1.454065    0.722537    0.000000
      3          8           0       -0.000000    0.672699    0.000000
      4          7           0       -0.261698   -0.762420   -0.000000
      5          8           0       -1.418847   -0.940214   -0.000000
 ---------------------------------------------------------------------

 SCF Done:  E(RHF) =  -279.501120998     A.U. after   14 cycles
 E2 =    -0.9455246393D+00 EUMP2 =    -0.28044664563728D+03

 The electronic state is 1-A'.
 Alpha  occ. eigenvalues --  -20.69062 -20.68411 -20.66075 -15.81263  -1.62380
 Alpha  occ. eigenvalues --   -1.49454  -1.25248  -0.94784  -0.77199  -0.75837
 Alpha  occ. eigenvalues --   -0.71156  -0.67783  -0.62016  -0.58895  -0.48488
 Alpha  occ. eigenvalues --   -0.47223
 Alpha virt. eigenvalues --    0.02944   0.07183   0.08599   0.10174   0.13396
 Alpha virt. eigenvalues --    0.13403   0.14364   0.15417   0.17840   0.19420
 Alpha virt. eigenvalues --    0.19984   0.20636   0.22085   0.23570   0.23747

 Mulliken charges:
               1
     1  H    0.258236
     2  O   -0.209576
     3  O   -0.146493
     4  N    0.291071
     5  O   -0.193238
 Sum of Mulliken charges =  -0.00000

 Dipole moment (field-independent basis, Debye):
    X=              0.5135    Y=              1.3735    Z=              0.0000  Tot=              1.4663
 Quadrupole moment (field-independent basis, Debye-Ang):
   XX=            -22.4735   YY=            -18.5768   ZZ=            -22.0229
   XY=              3.2757   XZ=              0.0000   YZ=             -0.0000

 Normal termination of Gaussian 16 at Mon Feb 14 12:38:25 2022.
