 Gaussian 16, Revision B.01,
 Gaussian 16:  ES64L-G16RevB.01 20-Dec-2017

 -------------------------------------
 #p SP mp2/aug-cc-pvtz density=current
 -------------------------------------

 -----
 title
 -----
 Symbolic Z-matrix:
 Charge =  0 Multiplicity = 1

                         Standard orientation:
 ---------------------------------------------------------------------
 Center     Atomic      Atomic             Coordinates (Angstroms)
 Number     Number       Type             X           Y           Z
 ---------------------------------------------------------------------
      1          1           0        1.529925    1.695515    0.000000
      2          8           0        1.440301    0.730693    0.000000
      3          8           0       -0.000000    0.673150    0.000000
      4          7           0       -0.253557   -0.763430   -0.000000
      5          8           0       -1.409680   -0.947781   -0.000000
 ---------------------------------------------------------------------

 SCF Done:  E(RHF) =  -279.502694790     A.U. after   14 cycles
 E2 =    -0.9439526920D+00 EUMP2 =    -0.28044664748234D+03

 The electronic state is 1-A'.
 Alpha  occ. eigenvalues --  -20.69011 -20.68405 -20.65882 -15.81256  -1.62448
 Alpha  occ. eigenvalues --   -1.50118  -1.25199  -0.94826  -0.77425  -0.76029
 Alpha  occ. eigenvalues --   -0.71307  -0.67943  -0.62174  -0.59121  -0.48277
 Alpha  occ. eigenvalues --   -0.47218
 Alpha virt. eigenvalues --    0.02965   0.07169   0.08626   0.10177   0.13394
 Alpha virt. eigenvalues --    0.13454   0.14415   0.15459   0.17822   0.19405
 Alpha virt. eigenvalues --    0.19975   0.20648   0.22205   0.23749   0.24163

 Mulliken charges:
               1
     1  H    0.249498
     2  O   -0.200040
     3  O   -0.146314
     4  N    0.290556
     5  O   -0.193700
 Sum of Mulliken charges =  -0.00000

 Dipole moment (field-independent basis, Debye):
    X=              0.5057    Y=              1.3731    Z=              0.0000  Tot=              1.4632
 Quadrupole moment (field-independent basis, Debye-Ang):
   XX=            -22.5429   YY=            -18.5667   ZZ=            -21.9915
   XY=              3.2125   XZ=             -0.0000   YZ=              0.0000

 Normal termination of Gaussian 16 at Mon Feb 14 12:39:01 2022.
