 Gaussian 16, Revision B.01,
 Gaussian 16:  ES64L-G16RevB.01 20-Dec-2017

 -------------------------------------
 #p SP mp2/aug-cc-pvtz density=current
 -------------------------------------

 -----
 title
 -----
 Symbolic Z-matrix:
 Charge =  0 Multiplicity = 1

                         Standard orientation:
 ---------------------------------------------------------------------
 Center     Atomic      Atomic             Coordinates (Angstroms)
 Number     Number       Type             X           Y           Z
 ---------------------------------------------------------------------
      1          1           0        1.552059    1.682402    0.000000
      2          8           0        1.454202    0.718381    0.000000
      3          8           0        0.000000    0.672711    0.000000
      4          7           0       -0.265810   -0.761652    0.000000
      5          8           0       -1.415626   -0.934946    0.000000
 ---------------------------------------------------------------------

 SCF Done:  E(RHF) =  -279.502938108     A.U. after   14 cycles
 E2 =    -0.9436978543D+00 EUMP2 =    -0.28044663596270D+03

 The electronic state is 1-A'.
 Alpha  occ. eigenvalues --  -20.68901 -20.68463 -20.65896 -15.81168  -1.63057
 Alpha  occ. eigenvalues --   -1.49580  -1.25361  -0.94699  -0.77375  -0.76129
 Alpha  occ. eigenvalues --   -0.71350  -0.68029  -0.62201  -0.58890  -0.48455
 Alpha  occ. eigenvalues --   -0.47094
 Alpha virt. eigenvalues --    0.02984   0.07412   0.08581   0.10172   0.13381
 Alpha virt. eigenvalues --    0.13406   0.14425   0.15473   0.17840   0.19408
 Alpha virt. eigenvalues --    0.20011   0.20637   0.22107   0.23610   0.23744

 Mulliken charges:
               1
     1  H    0.249990
     2  O   -0.202234
     3  O   -0.148927
     4  N    0.292547
     5  O   -0.191376
 Sum of Mulliken charges =   0.00000

 Dipole moment (field-independent basis, Debye):
    X=              0.4779    Y=              1.3256    Z=              0.0000  Tot=              1.4091
 Quadrupole moment (field-independent basis, Debye-Ang):
   XX=            -22.4268   YY=            -18.6158   ZZ=            -21.9972
   XY=              3.2831   XZ=              0.0000   YZ=             -0.0000

 Normal termination of Gaussian 16 at Tue Feb  8 13:24:44 2022.
