 Gaussian 16, Revision B.01,
 Gaussian 16:  ES64L-G16RevB.01 20-Dec-2017

 -------------------------------------
 #p SP mp2/aug-cc-pvtz density=current
 -------------------------------------

 -----
 title
 -----
 Symbolic Z-matrix:
 Charge =  0 Multiplicity = 1

                         Standard orientation:
 ---------------------------------------------------------------------
 Center     Atomic      Atomic             Coordinates (Angstroms)
 Number     Number       Type             X           Y           Z
 ---------------------------------------------------------------------
      1          1           0        1.520869    1.718654   -0.000000
      2          8           0        1.452161    0.752118   -0.000000
      3          8           0       -0.000000    0.662567    0.000000
      4          7           0       -0.258915   -0.773056    0.000000
      5          8           0       -1.415718   -0.953092    0.000000
 ---------------------------------------------------------------------

 SCF Done:  E(RHF) =  -279.501698068     A.U. after   14 cycles
 E2 =    -0.9449462172D+00 EUMP2 =    -0.28044664428484D+03

 The electronic state is 1-A'.
 Alpha  occ. eigenvalues --  -20.69045 -20.68463 -20.66047 -15.81328  -1.62398
 Alpha  occ. eigenvalues --   -1.49533  -1.25509  -0.94780  -0.77168  -0.75976
 Alpha  occ. eigenvalues --   -0.71158  -0.68153  -0.62084  -0.58833  -0.48510
 Alpha  occ. eigenvalues --   -0.47221
 Alpha virt. eigenvalues --    0.02963   0.07150   0.08597   0.10211   0.13378
 Alpha virt. eigenvalues --    0.13380   0.14389   0.15403   0.17832   0.19432
 Alpha virt. eigenvalues --    0.19996   0.20613   0.22066   0.23523   0.23726

 Mulliken charges:
               1
     1  H    0.252214
     2  O   -0.204544
     3  O   -0.145034
     4  N    0.289219
     5  O   -0.191856
 Sum of Mulliken charges =  -0.00000

 Dipole moment (field-independent basis, Debye):
    X=              0.4712    Y=              1.3715    Z=              0.0000  Tot=              1.4501
 Quadrupole moment (field-independent basis, Debye-Ang):
   XX=            -22.6222   YY=            -18.4683   ZZ=            -22.0132
   XY=              3.2028   XZ=              0.0000   YZ=             -0.0000

 Normal termination of Gaussian 16 at Mon Feb 14 12:37:30 2022.
