 Gaussian 16, Revision B.01,
 Gaussian 16:  ES64L-G16RevB.01 20-Dec-2017

 -------------------------------------
 #p SP mp2/aug-cc-pvtz density=current
 -------------------------------------

 -----
 title
 -----
 Symbolic Z-matrix:
 Charge =  0 Multiplicity = 1

                         Standard orientation:
 ---------------------------------------------------------------------
 Center     Atomic      Atomic             Coordinates (Angstroms)
 Number     Number       Type             X           Y           Z
 ---------------------------------------------------------------------
      1          1           0        1.568257    1.678751   -0.000000
      2          8           0        1.467784    0.714998    0.000000
      3          8           0       -0.000000    0.672890   -0.000000
      4          7           0       -0.269703   -0.760746    0.000000
      5          8           0       -1.427827   -0.932079   -0.000000
 ---------------------------------------------------------------------

 SCF Done:  E(RHF) =  -279.500484268     A.U. after   14 cycles
 E2 =    -0.9461554354D+00 EUMP2 =    -0.28044663970329D+03

 The electronic state is 1-A'.
 Alpha  occ. eigenvalues --  -20.69164 -20.68453 -20.66114 -15.81310  -1.62366
 Alpha  occ. eigenvalues --   -1.49047  -1.25680  -0.94788  -0.77140  -0.75812
 Alpha  occ. eigenvalues --   -0.71062  -0.67937  -0.61917  -0.58754  -0.48761
 Alpha  occ. eigenvalues --   -0.47280
 Alpha virt. eigenvalues --    0.02960   0.07166   0.08559   0.10165   0.13325
 Alpha virt. eigenvalues --    0.13397   0.14401   0.15447   0.17829   0.19430
 Alpha virt. eigenvalues --    0.19986   0.20621   0.21832   0.23062   0.23727

 Mulliken charges:
               1
     1  H    0.251028
     2  O   -0.203203
     3  O   -0.147844
     4  N    0.292834
     5  O   -0.192816
 Sum of Mulliken charges =  -0.00000

 Dipole moment (field-independent basis, Debye):
    X=              0.5107    Y=              1.3488    Z=             -0.0000  Tot=              1.4423
 Quadrupole moment (field-independent basis, Debye-Ang):
   XX=            -22.3950   YY=            -18.6652   ZZ=            -22.0290
   XY=              3.2980   XZ=             -0.0000   YZ=              0.0000

 Normal termination of Gaussian 16 at Tue Feb  8 13:21:36 2022.
