 Gaussian 16, Revision B.01,
 Gaussian 16:  ES64L-G16RevB.01 20-Dec-2017

 -------------------------------------
 #p SP mp2/aug-cc-pvtz density=current
 -------------------------------------

 -----
 title
 -----
 Symbolic Z-matrix:
 Charge =  0 Multiplicity = 1

                         Standard orientation:
 ---------------------------------------------------------------------
 Center     Atomic      Atomic             Coordinates (Angstroms)
 Number     Number       Type             X           Y           Z
 ---------------------------------------------------------------------
      1          1           0       -2.243341    0.428485    0.122312
      2          8           0       -1.599124   -0.282993   -0.010720
      3          8           0       -0.400255    0.541319   -0.014309
      4          7           0        0.663265   -0.456969    0.005654
      5          8           0        1.699439    0.087961    0.004794
 ---------------------------------------------------------------------

 SCF Done:  E(RHF) =  -279.501754371     A.U. after   16 cycles
 E2 =    -0.9450706004D+00 EUMP2 =    -0.28044682497122D+03

 The electronic state is 1-A.
 Alpha  occ. eigenvalues --  -20.69097 -20.68428 -20.66007 -15.81276  -1.62403
 Alpha  occ. eigenvalues --   -1.49579  -1.25442  -0.94808  -0.77263  -0.75934
 Alpha  occ. eigenvalues --   -0.71241  -0.67905  -0.62013  -0.58909  -0.48621
 Alpha  occ. eigenvalues --   -0.47203
 Alpha virt. eigenvalues --    0.02960   0.07166   0.08593   0.10174   0.13285
 Alpha virt. eigenvalues --    0.13478   0.14398   0.15448   0.17818   0.19413
 Alpha virt. eigenvalues --    0.19948   0.20651   0.22081   0.23539   0.23731

 Mulliken charges:
               1
     1  H    0.250133
     2  O   -0.201628
     3  O   -0.147083
     4  N    0.291894
     5  O   -0.193316
 Sum of Mulliken charges =  -0.00000

 Dipole moment (field-independent basis, Debye):
    X=             -1.2091    Y=              0.7795    Z=              0.2322  Tot=              1.4572
 Quadrupole moment (field-independent basis, Debye-Ang):
   XX=            -18.0468   YY=            -23.1096   ZZ=            -21.9676
   XY=             -2.7537   XZ=             -0.6123   YZ=              0.1879

 Normal termination of Gaussian 16 at Tue Feb  8 13:21:18 2022.
