 Gaussian 16, Revision B.01,
 Gaussian 16:  ES64L-G16RevB.01 20-Dec-2017

 -------------------------------------
 #p SP mp2/aug-cc-pvtz density=current
 -------------------------------------

 -----
 title
 -----
 Symbolic Z-matrix:
 Charge =  0 Multiplicity = 1

                         Standard orientation:
 ---------------------------------------------------------------------
 Center     Atomic      Atomic             Coordinates (Angstroms)
 Number     Number       Type             X           Y           Z
 ---------------------------------------------------------------------
      1          1           0        2.248631    0.434251   -0.019291
      2          8           0        1.598347   -0.284098   -0.014944
      3          8           0        0.400483    0.541071    0.016826
      4          7           0       -0.663853   -0.456504    0.025911
      5          8           0       -1.699038    0.088186   -0.022142
 ---------------------------------------------------------------------

 SCF Done:  E(RHF) =  -279.501627702     A.U. after   14 cycles
 E2 =    -0.9450160284D+00 EUMP2 =    -0.28044664373001D+03

 The electronic state is 1-A.
 Alpha  occ. eigenvalues --  -20.69081 -20.68435 -20.65999 -15.81280  -1.62404
 Alpha  occ. eigenvalues --   -1.49573  -1.25440  -0.94806  -0.77277  -0.75917
 Alpha  occ. eigenvalues --   -0.71194  -0.67921  -0.62051  -0.58939  -0.48522
 Alpha  occ. eigenvalues --   -0.47249
 Alpha virt. eigenvalues --    0.02963   0.07161   0.08598   0.10172   0.13279
 Alpha virt. eigenvalues --    0.13506   0.14409   0.15454   0.17816   0.19414
 Alpha virt. eigenvalues --    0.19966   0.20650   0.22086   0.23484   0.23807

 Mulliken charges:
               1
     1  H    0.250312
     2  O   -0.201568
     3  O   -0.147370
     4  N    0.291687
     5  O   -0.193061
 Sum of Mulliken charges =  -0.00000

 Dipole moment (field-independent basis, Debye):
    X=              1.2168    Y=              0.7910    Z=             -0.0070  Tot=              1.4513
 Quadrupole moment (field-independent basis, Debye-Ang):
   XX=            -17.9880   YY=            -23.0931   ZZ=            -22.0129
   XY=              2.7903   XZ=             -0.1039   YZ=              0.0405

 Normal termination of Gaussian 16 at Tue Feb  8 13:24:26 2022.
