 Gaussian 16, Revision B.01,
 Gaussian 16:  ES64L-G16RevB.01 20-Dec-2017

 -------------------------------------
 #p SP mp2/aug-cc-pvtz density=current
 -------------------------------------

 -----
 title
 -----
 Symbolic Z-matrix:
 Charge =  0 Multiplicity = 1

                         Standard orientation:
 ---------------------------------------------------------------------
 Center     Atomic      Atomic             Coordinates (Angstroms)
 Number     Number       Type             X           Y           Z
 ---------------------------------------------------------------------
      1          1           0        1.510308    1.692661    0.000000
      2          8           0        1.453975    0.725324    0.000000
      3          8           0       -0.000000    0.672918    0.000000
      4          7           0       -0.259163   -0.762660    0.000000
      5          8           0       -1.415996   -0.942497    0.000000
 ---------------------------------------------------------------------

 SCF Done:  E(RHF) =  -279.501207038     A.U. after   14 cycles
 E2 =    -0.9453713906D+00 EUMP2 =    -0.28044657842851D+03

 The electronic state is 1-A'.
 Alpha  occ. eigenvalues --  -20.69065 -20.68427 -20.66081 -15.81279  -1.62414
 Alpha  occ. eigenvalues --   -1.49713  -1.25407  -0.94820  -0.77392  -0.75776
 Alpha  occ. eigenvalues --   -0.71205  -0.67873  -0.62085  -0.59145  -0.48550
 Alpha  occ. eigenvalues --   -0.47253
 Alpha virt. eigenvalues --    0.02988   0.07158   0.08592   0.10164   0.13384
 Alpha virt. eigenvalues --    0.13408   0.14413   0.15465   0.17819   0.19395
 Alpha virt. eigenvalues --    0.19961   0.20641   0.22069   0.23532   0.23735

 Mulliken charges:
               1
     1  H    0.253432
     2  O   -0.201904
     3  O   -0.148941
     4  N    0.290857
     5  O   -0.193444
 Sum of Mulliken charges =  -0.00000

 Dipole moment (field-independent basis, Debye):
    X=              0.4570    Y=              1.3561    Z=             -0.0000  Tot=              1.4310
 Quadrupole moment (field-independent basis, Debye-Ang):
   XX=            -22.6512   YY=            -18.5953   ZZ=            -22.0066
   XY=              3.1239   XZ=             -0.0000   YZ=              0.0000

 Normal termination of Gaussian 16 at Mon Feb 14 22:12:24 2022.
