 Gaussian 16, Revision B.01,
 Gaussian 16:  ES64L-G16RevB.01 20-Dec-2017

 -------------------------------------
 #p SP mp2/aug-cc-pvtz density=current
 -------------------------------------

 -----
 title
 -----
 Symbolic Z-matrix:
 Charge =  0 Multiplicity = 1

                         Standard orientation:
 ---------------------------------------------------------------------
 Center     Atomic      Atomic             Coordinates (Angstroms)
 Number     Number       Type             X           Y           Z
 ---------------------------------------------------------------------
      1          1           0        1.553008    1.680847    0.000000
      2          8           0        1.454245    0.716917    0.000000
      3          8           0       -0.000000    0.672616    0.000000
      4          7           0       -0.267159   -0.761496   -0.000000
      5          8           0       -1.414606   -0.933330   -0.000000
 ---------------------------------------------------------------------

 SCF Done:  E(RHF) =  -279.503297955     A.U. after   14 cycles
 E2 =    -0.9432652254D+00 EUMP2 =    -0.28044656318087D+03

 The electronic state is 1-A'.
 Alpha  occ. eigenvalues --  -20.68840 -20.68474 -20.65863 -15.81130  -1.63273
 Alpha  occ. eigenvalues --   -1.49579  -1.25334  -0.94665  -0.77409  -0.76198
 Alpha  occ. eigenvalues --   -0.71409  -0.68057  -0.62248  -0.58872  -0.48432
 Alpha  occ. eigenvalues --   -0.47043
 Alpha virt. eigenvalues --    0.02991   0.07491   0.08576   0.10172   0.13376
 Alpha virt. eigenvalues --    0.13409   0.14431   0.15479   0.17845   0.19405
 Alpha virt. eigenvalues --    0.20020   0.20637   0.22116   0.23633   0.23746

 Mulliken charges:
               1
     1  H    0.249901
     2  O   -0.202445
     3  O   -0.149503
     4  N    0.292788
     5  O   -0.190742
 Sum of Mulliken charges =  -0.00000

 Dipole moment (field-independent basis, Debye):
    X=              0.4679    Y=              1.3141    Z=              0.0000  Tot=              1.3949
 Quadrupole moment (field-independent basis, Debye-Ang):
   XX=            -22.4128   YY=            -18.6158   ZZ=            -21.9929
   XY=              3.2919   XZ=             -0.0000   YZ=              0.0000

 Normal termination of Gaussian 16 at Mon Feb 14 22:11:48 2022.
