 Gaussian 16, Revision B.01,
 Gaussian 16:  ES64L-G16RevB.01 20-Dec-2017

 -------------------------------------
 #p SP mp2/aug-cc-pvtz density=current
 -------------------------------------

 -----
 title
 -----
 Symbolic Z-matrix:
 Charge =  0 Multiplicity = 1

                         Standard orientation:
 ---------------------------------------------------------------------
 Center     Atomic      Atomic             Coordinates (Angstroms)
 Number     Number       Type             X           Y           Z
 ---------------------------------------------------------------------
      1          1           0        1.547514    1.682203    0.000000
      2          8           0        1.453983    0.717752    0.000000
      3          8           0       -0.000000    0.665560    0.000000
      4          7           0       -0.259374   -0.769981   -0.000000
      5          8           0       -1.420470   -0.919854   -0.000000
 ---------------------------------------------------------------------

 SCF Done:  E(RHF) =  -279.501609213     A.U. after   14 cycles
 E2 =    -0.9449650762D+00 EUMP2 =    -0.28044657428917D+03

 The electronic state is 1-A'.
 Alpha  occ. eigenvalues --  -20.69027 -20.68377 -20.65901 -15.81333  -1.62528
 Alpha  occ. eigenvalues --   -1.49464  -1.25319  -0.94847  -0.77196  -0.75970
 Alpha  occ. eigenvalues --   -0.71209  -0.67898  -0.61986  -0.58812  -0.48452
 Alpha  occ. eigenvalues --   -0.47423
 Alpha virt. eigenvalues --    0.02974   0.07104   0.08623   0.10169   0.13387
 Alpha virt. eigenvalues --    0.13387   0.14416   0.15443   0.17842   0.19410
 Alpha virt. eigenvalues --    0.19987   0.20663   0.22078   0.23689   0.23758

 Mulliken charges:
               1
     1  H    0.250165
     2  O   -0.204816
     3  O   -0.145013
     4  N    0.293452
     5  O   -0.193788
 Sum of Mulliken charges =  -0.00000

 Dipole moment (field-independent basis, Debye):
    X=              0.5117    Y=              1.3408    Z=              0.0000  Tot=              1.4352
 Quadrupole moment (field-independent basis, Debye-Ang):
   XX=            -22.5161   YY=            -18.6065   ZZ=            -22.0030
   XY=              3.2196   XZ=             -0.0000   YZ=              0.0000

 Normal termination of Gaussian 16 at Mon Feb 14 22:13:38 2022.
