 Gaussian 16, Revision B.01,
 Gaussian 16:  ES64L-G16RevB.01 20-Dec-2017

 -------------------------------------
 #p SP mp2/aug-cc-pvtz density=current
 -------------------------------------

 -----
 title
 -----
 Symbolic Z-matrix:
 Charge =  0 Multiplicity = 1

                         Standard orientation:
 ---------------------------------------------------------------------
 Center     Atomic      Atomic             Coordinates (Angstroms)
 Number     Number       Type             X           Y           Z
 ---------------------------------------------------------------------
      1          1           0        1.545671    1.705186    0.000000
      2          8           0        1.453886    0.740567    0.000000
      3          8           0        0.000000    0.685743    0.000000
      4          7           0       -0.261633   -0.777438   -0.000000
      5          8           0       -1.418166   -0.959200   -0.000000
 ---------------------------------------------------------------------

 SCF Done:  E(RHF) =  -279.498840745     A.U. after   14 cycles
 E2 =    -0.9477405141D+00 EUMP2 =    -0.28044658125930D+03

 The electronic state is 1-A'.
 Alpha  occ. eigenvalues --  -20.69081 -20.68622 -20.65660 -15.81730  -1.62317
 Alpha  occ. eigenvalues --   -1.49167  -1.24619  -0.95031  -0.77063  -0.75615
 Alpha  occ. eigenvalues --   -0.70742  -0.68076  -0.62176  -0.58791  -0.48226
 Alpha  occ. eigenvalues --   -0.47111
 Alpha virt. eigenvalues --    0.03039   0.06812   0.08541   0.10139   0.13379
 Alpha virt. eigenvalues --    0.13413   0.14466   0.15508   0.17886   0.19401
 Alpha virt. eigenvalues --    0.19967   0.20219   0.22152   0.23659   0.23707

 Mulliken charges:
               1
     1  H    0.249983
     2  O   -0.203483
     3  O   -0.164919
     4  N    0.299636
     5  O   -0.181217
 Sum of Mulliken charges =  -0.00000

 Dipole moment (field-independent basis, Debye):
    X=              0.3839    Y=              1.2000    Z=              0.0000  Tot=              1.2599
 Quadrupole moment (field-independent basis, Debye-Ang):
   XX=            -22.4221   YY=            -18.4973   ZZ=            -22.0497
   XY=              3.3079   XZ=              0.0000   YZ=             -0.0000

 Normal termination of Gaussian 16 at Mon Feb 14 22:10:53 2022.
