 Gaussian 16, Revision B.01,
 Gaussian 16:  ES64L-G16RevB.01 20-Dec-2017

 -------------------------------------
 #p SP mp2/aug-cc-pvtz density=current
 -------------------------------------

 -----
 title
 -----
 Symbolic Z-matrix:
 Charge =  0 Multiplicity = 1

                         Standard orientation:
 ---------------------------------------------------------------------
 Center     Atomic      Atomic             Coordinates (Angstroms)
 Number     Number       Type             X           Y           Z
 ---------------------------------------------------------------------
      1          1           0        1.550955    1.691817   -0.000000
      2          8           0        1.454152    0.727689   -0.000000
      3          8           0       -0.000000    0.680431   -0.000000
      4          7           0       -0.264244   -0.754221    0.000000
      5          8           0       -1.416808   -0.959653    0.000000
 ---------------------------------------------------------------------

 SCF Done:  E(RHF) =  -279.501414619     A.U. after   14 cycles
 E2 =    -0.9451615724D+00 EUMP2 =    -0.28044657619188D+03

 The electronic state is 1-A'.
 Alpha  occ. eigenvalues --  -20.69150 -20.68481 -20.66090 -15.81231  -1.62283
 Alpha  occ. eigenvalues --   -1.49681  -1.25558  -0.94769  -0.77356  -0.75870
 Alpha  occ. eigenvalues --   -0.71152  -0.67975  -0.62102  -0.59068  -0.48591
 Alpha  occ. eigenvalues --   -0.47066
 Alpha virt. eigenvalues --    0.02952   0.07229   0.08565   0.10173   0.13404
 Alpha virt. eigenvalues --    0.13404   0.14403   0.15463   0.17810   0.19423
 Alpha virt. eigenvalues --    0.19975   0.20607   0.22081   0.23398   0.23719

 Mulliken charges:
               1
     1  H    0.250298
     2  O   -0.198444
     3  O   -0.149166
     4  N    0.290043
     5  O   -0.192730
 Sum of Mulliken charges =  -0.00000

 Dipole moment (field-independent basis, Debye):
    X=              0.5035    Y=              1.3794    Z=             -0.0000  Tot=              1.4684
 Quadrupole moment (field-independent basis, Debye-Ang):
   XX=            -22.4221   YY=            -18.6254   ZZ=            -22.0178
   XY=              3.2920   XZ=              0.0000   YZ=             -0.0000

 Normal termination of Gaussian 16 at Mon Feb 14 22:13:20 2022.
