 Gaussian 16, Revision B.01,
 Gaussian 16:  ES64L-G16RevB.01 20-Dec-2017

 -------------------------------------
 #p SP mp2/aug-cc-pvtz density=current
 -------------------------------------

 -----
 title
 -----
 Symbolic Z-matrix:
 Charge =  0 Multiplicity = 1

                         Standard orientation:
 ---------------------------------------------------------------------
 Center     Atomic      Atomic             Coordinates (Angstroms)
 Number     Number       Type             X           Y           Z
 ---------------------------------------------------------------------
      1          1           0        1.587751    1.680279    0.000000
      2          8           0        1.454147    0.720559    0.000000
      3          8           0       -0.000000    0.673146    0.000000
      4          7           0       -0.264091   -0.761534   -0.000000
      5          8           0       -1.421536   -0.937397   -0.000000
 ---------------------------------------------------------------------

 SCF Done:  E(RHF) =  -279.501802806     A.U. after   14 cycles
 E2 =    -0.9447693374D+00 EUMP2 =    -0.28044657214324D+03

 The electronic state is 1-A'.
 Alpha  occ. eigenvalues --  -20.69119 -20.68438 -20.65903 -15.81292  -1.62397
 Alpha  occ. eigenvalues --   -1.49442  -1.25471  -0.94801  -0.77177  -0.76058
 Alpha  occ. eigenvalues --   -0.71158  -0.67989  -0.62007  -0.58732  -0.48495
 Alpha  occ. eigenvalues --   -0.47250
 Alpha virt. eigenvalues --    0.02939   0.07173   0.08595   0.10179   0.13373
 Alpha virt. eigenvalues --    0.13406   0.14411   0.15442   0.17833   0.19439
 Alpha virt. eigenvalues --    0.20000   0.20625   0.22089   0.23540   0.23740

 Mulliken charges:
               1
     1  H    0.247520
     2  O   -0.201772
     3  O   -0.145385
     4  N    0.292633
     5  O   -0.192996
 Sum of Mulliken charges =   0.00000

 Dipole moment (field-independent basis, Debye):
    X=              0.5581    Y=              1.3622    Z=              0.0000  Tot=              1.4721
 Quadrupole moment (field-independent basis, Debye-Ang):
   XX=            -22.2804   YY=            -18.6463   ZZ=            -22.0141
   XY=              3.3828   XZ=              0.0000   YZ=             -0.0000

 Normal termination of Gaussian 16 at Mon Feb 14 22:12:06 2022.
