 Gaussian 16, Revision B.01,
 Gaussian 16:  ES64L-G16RevB.01 20-Dec-2017

 -------------------------------------
 #p SP mp2/aug-cc-pvtz density=current
 -------------------------------------

 -----
 title
 -----
 Symbolic Z-matrix:
 Charge =  0 Multiplicity = 1

                         Standard orientation:
 ---------------------------------------------------------------------
 Center     Atomic      Atomic             Coordinates (Angstroms)
 Number     Number       Type             X           Y           Z
 ---------------------------------------------------------------------
      1          1           0        1.552667    1.669039   -0.000000
      2          8           0        1.454230    0.705077   -0.000000
      3          8           0       -0.000000    0.660283   -0.000000
      4          7           0       -0.261628   -0.746780    0.000000
      5          8           0       -1.419388   -0.920558    0.000000
 ---------------------------------------------------------------------

 SCF Done:  E(RHF) =  -279.504140369     A.U. after   14 cycles
 E2 =    -0.9424275705D+00 EUMP2 =    -0.28044656793946D+03

 The electronic state is 1-A'.
 Alpha  occ. eigenvalues --  -20.69556 -20.67769 -20.66335 -15.80842  -1.62606
 Alpha  occ. eigenvalues --   -1.49943  -1.26277  -0.94612  -0.77506  -0.76259
 Alpha  occ. eigenvalues --   -0.71684  -0.67795  -0.61898  -0.59083  -0.48797
 Alpha  occ. eigenvalues --   -0.47346
 Alpha virt. eigenvalues --    0.02887   0.07525   0.08642   0.10201   0.13371
 Alpha virt. eigenvalues --    0.13407   0.14352   0.15399   0.17765   0.19420
 Alpha virt. eigenvalues --    0.19996   0.20963   0.21995   0.23418   0.23773

 Mulliken charges:
               1
     1  H    0.250473
     2  O   -0.199707
     3  O   -0.128934
     4  N    0.283443
     5  O   -0.205275
 Sum of Mulliken charges =  -0.00000

 Dipole moment (field-independent basis, Debye):
    X=              0.6347    Y=              1.5178    Z=             -0.0000  Tot=              1.6452
 Quadrupole moment (field-independent basis, Debye-Ang):
   XX=            -22.5169   YY=            -18.7319   ZZ=            -21.9705
   XY=              3.2037   XZ=              0.0000   YZ=             -0.0000

 Normal termination of Gaussian 16 at Mon Feb 14 22:11:11 2022.
