 Gaussian 16, Revision B.01,
 Gaussian 16:  ES64L-G16RevB.01 20-Dec-2017

 -------------------------------------
 #p SP mp2/aug-cc-pvtz density=current
 -------------------------------------

 -----
 title
 -----
 Symbolic Z-matrix:
 Charge =  0 Multiplicity = 1

                         Standard orientation:
 ---------------------------------------------------------------------
 Center     Atomic      Atomic             Coordinates (Angstroms)
 Number     Number       Type             X           Y           Z
 ---------------------------------------------------------------------
      1          1           0       -2.239196    0.423789    0.161559
      2          8           0       -1.599330   -0.282327   -0.014184
      3          8           0       -0.400183    0.541576   -0.018780
      4          7           0        0.662964   -0.456965    0.007368
      5          8           0        1.699319    0.087622    0.006323
 ---------------------------------------------------------------------

 SCF Done:  E(RHF) =  -279.501803326     A.U. after   16 cycles
 E2 =    -0.9450881073D+00 EUMP2 =    -0.28044689143291D+03

 The electronic state is 1-A.
 Alpha  occ. eigenvalues --  -20.69104 -20.68426 -20.66013 -15.81271  -1.62403
 Alpha  occ. eigenvalues --   -1.49583  -1.25444  -0.94809  -0.77252  -0.75947
 Alpha  occ. eigenvalues --   -0.71285  -0.67881  -0.61990  -0.58883  -0.48691
 Alpha  occ. eigenvalues --   -0.47172
 Alpha virt. eigenvalues --    0.02958   0.07165   0.08593   0.10175   0.13242
 Alpha virt. eigenvalues --    0.13500   0.14390   0.15445   0.17812   0.19410
 Alpha virt. eigenvalues --    0.19925   0.20662   0.22080   0.23536   0.23726

 Mulliken charges:
               1
     1  H    0.250080
     2  O   -0.201702
     3  O   -0.147024
     4  N    0.292010
     5  O   -0.193364
 Sum of Mulliken charges =  -0.00000

 Dipole moment (field-independent basis, Debye):
    X=             -1.2024    Y=              0.7704    Z=              0.3065  Tot=              1.4605
 Quadrupole moment (field-independent basis, Debye-Ang):
   XX=            -18.0879   YY=            -23.1219   ZZ=            -21.9358
   XY=             -2.7234   XZ=             -0.8068   YZ=              0.2457

 Normal termination of Gaussian 16 at Mon Feb 14 22:14:31 2022.
