 Gaussian 16, Revision B.01,
 Gaussian 16:  ES64L-G16RevB.01 20-Dec-2017

 -------------------------------------
 #p SP mp2/aug-cc-pvtz density=current
 -------------------------------------

 -----
 title
 -----
 Symbolic Z-matrix:
 Charge =  0 Multiplicity = 1

                         Standard orientation:
 ---------------------------------------------------------------------
 Center     Atomic      Atomic             Coordinates (Angstroms)
 Number     Number       Type             X           Y           Z
 ---------------------------------------------------------------------
      1          1           0        1.584044    1.645599    0.000000
      2          8           0        1.454918    0.685266    0.000000
      3          8           0       -0.000000    0.686868    0.000000
      4          7           0       -0.264246   -0.747784   -0.000000
      5          8           0       -1.421709   -0.923522   -0.000000
 ---------------------------------------------------------------------

 SCF Done:  E(RHF) =  -279.501331376     A.U. after   14 cycles
 E2 =    -0.9452407225D+00 EUMP2 =    -0.28044657209824D+03

 The electronic state is 1-A'.
 Alpha  occ. eigenvalues --  -20.69134 -20.68387 -20.65933 -15.81224  -1.62411
 Alpha  occ. eigenvalues --   -1.49630  -1.25345  -0.94848  -0.77433  -0.75837
 Alpha  occ. eigenvalues --   -0.71208  -0.67630  -0.61991  -0.59084  -0.48537
 Alpha  occ. eigenvalues --   -0.47290
 Alpha virt. eigenvalues --    0.02962   0.07191   0.08591   0.10120   0.13412
 Alpha virt. eigenvalues --    0.13417   0.14431   0.15512   0.17817   0.19393
 Alpha virt. eigenvalues --    0.19962   0.20638   0.22112   0.23554   0.23755

 Mulliken charges:
               1
     1  H    0.247423
     2  O   -0.197230
     3  O   -0.150268
     4  N    0.294996
     5  O   -0.194921
 Sum of Mulliken charges =  -0.00000

 Dipole moment (field-independent basis, Debye):
    X=              0.5556    Y=              1.3438    Z=              0.0000  Tot=              1.4541
 Quadrupole moment (field-independent basis, Debye-Ang):
   XX=            -22.2678   YY=            -18.8113   ZZ=            -22.0066
   XY=              3.3109   XZ=             -0.0000   YZ=             -0.0000

 Normal termination of Gaussian 16 at Mon Feb 14 22:13:01 2022.
