 Gaussian 16, Revision B.01,
 Gaussian 16:  ES64L-G16RevB.01 20-Dec-2017

 -------------------------------------
 #p SP mp2/aug-cc-pvtz density=current
 -------------------------------------

 -----
 title
 -----
 Symbolic Z-matrix:
 Charge =  0 Multiplicity = 1

                         Standard orientation:
 ---------------------------------------------------------------------
 Center     Atomic      Atomic             Coordinates (Angstroms)
 Number     Number       Type             X           Y           Z
 ---------------------------------------------------------------------
      1          1           0        1.550469    1.699851    0.000000
      2          8           0        1.454066    0.722415    0.000000
      3          8           0       -0.000000    0.672598    0.000000
      4          7           0       -0.261719   -0.762516   -0.000000
      5          8           0       -1.418871   -0.940293   -0.000000
 ---------------------------------------------------------------------

 SCF Done:  E(RHF) =  -279.500900721     A.U. after   14 cycles
 E2 =    -0.9456792261D+00 EUMP2 =    -0.28044657994676D+03

 The electronic state is 1-A'.
 Alpha  occ. eigenvalues --  -20.69053 -20.68404 -20.66099 -15.81256  -1.62373
 Alpha  occ. eigenvalues --   -1.49416  -1.25187  -0.94776  -0.77175  -0.75810
 Alpha  occ. eigenvalues --   -0.71149  -0.67732  -0.62007  -0.58879  -0.48478
 Alpha  occ. eigenvalues --   -0.47214
 Alpha virt. eigenvalues --    0.02937   0.07187   0.08600   0.10175   0.13396
 Alpha virt. eigenvalues --    0.13405   0.14350   0.15405   0.17844   0.19421
 Alpha virt. eigenvalues --    0.19985   0.20636   0.22086   0.23579   0.23750

 Mulliken charges:
               1
     1  H    0.260690
     2  O   -0.212042
     3  O   -0.146271
     4  N    0.290854
     5  O   -0.193233
 Sum of Mulliken charges =  -0.00000

 Dipole moment (field-independent basis, Debye):
    X=              0.5152    Y=              1.3776    Z=              0.0000  Tot=              1.4707
 Quadrupole moment (field-independent basis, Debye-Ang):
   XX=            -22.4749   YY=            -18.5642   ZZ=            -22.0269
   XY=              3.2820   XZ=              0.0000   YZ=             -0.0000

 Normal termination of Gaussian 16 at Mon Feb 14 22:09:40 2022.
