 Gaussian 16, Revision B.01,
 Gaussian 16:  ES64L-G16RevB.01 20-Dec-2017

 -------------------------------------
 #p SP mp2/aug-cc-pvtz density=current
 -------------------------------------

 -----
 title
 -----
 Symbolic Z-matrix:
 Charge =  0 Multiplicity = 1

                         Standard orientation:
 ---------------------------------------------------------------------
 Center     Atomic      Atomic             Coordinates (Angstroms)
 Number     Number       Type             X           Y           Z
 ---------------------------------------------------------------------
      1          1           0        1.574429    1.675982    0.000000
      2          8           0        1.472206    0.712414   -0.000000
      3          8           0       -0.000000    0.672856    0.000000
      4          7           0       -0.272307   -0.760288   -0.000000
      5          8           0       -1.430740   -0.929516    0.000000
 ---------------------------------------------------------------------

 SCF Done:  E(RHF) =  -279.500056154     A.U. after   14 cycles
 E2 =    -0.9465162359D+00 EUMP2 =    -0.28044657238998D+03

 The electronic state is 1-A'.
 Alpha  occ. eigenvalues --  -20.69188 -20.68460 -20.66151 -15.81318  -1.62355
 Alpha  occ. eigenvalues --   -1.48880  -1.25756  -0.94783  -0.77096  -0.75778
 Alpha  occ. eigenvalues --   -0.71026  -0.67938  -0.61876  -0.58691  -0.48836
 Alpha  occ. eigenvalues --   -0.47289
 Alpha virt. eigenvalues --    0.02959   0.07165   0.08547   0.10163   0.13300
 Alpha virt. eigenvalues --    0.13397   0.14399   0.15445   0.17829   0.19434
 Alpha virt. eigenvalues --    0.19988   0.20614   0.21714   0.22950   0.23723

 Mulliken charges:
               1
     1  H    0.251276
     2  O   -0.203737
     3  O   -0.148028
     4  N    0.293166
     5  O   -0.192677
 Sum of Mulliken charges =  -0.00000

 Dipole moment (field-independent basis, Debye):
    X=              0.5115    Y=              1.3450    Z=              0.0000  Tot=              1.4390
 Quadrupole moment (field-independent basis, Debye-Ang):
   XX=            -22.3711   YY=            -18.6813   ZZ=            -22.0350
   XY=              3.3113   XZ=              0.0000   YZ=             -0.0000

 Normal termination of Gaussian 16 at Mon Feb 14 22:10:17 2022.
