 Gaussian 16, Revision B.01,
 Gaussian 16:  ES64L-G16RevB.01 20-Dec-2017

 -------------------------------------
 #p SP mp2/aug-cc-pvtz density=current
 -------------------------------------

 -----
 title
 -----
 Symbolic Z-matrix:
 Charge =  0 Multiplicity = 1

                         Standard orientation:
 ---------------------------------------------------------------------
 Center     Atomic      Atomic             Coordinates (Angstroms)
 Number     Number       Type             X           Y           Z
 ---------------------------------------------------------------------
      1          1           0        1.523722    1.698159   -0.000000
      2          8           0        1.435850    0.733176   -0.000000
      3          8           0        0.000000    0.673200    0.000000
      4          7           0       -0.250948   -0.763838   -0.000000
      5          8           0       -1.406735   -0.950288    0.000000
 ---------------------------------------------------------------------

 SCF Done:  E(RHF) =  -279.502975286     A.U. after   14 cycles
 E2 =    -0.9436026622D+00 EUMP2 =    -0.28044657794797D+03

 The electronic state is 1-A'.
 Alpha  occ. eigenvalues --  -20.68986 -20.68397 -20.65844 -15.81246  -1.62464
 Alpha  occ. eigenvalues --   -1.50297  -1.25120  -0.94832  -0.77475  -0.76066
 Alpha  occ. eigenvalues --   -0.71350  -0.67946  -0.62216  -0.59176  -0.48196
 Alpha  occ. eigenvalues --   -0.47207
 Alpha virt. eigenvalues --    0.02965   0.07170   0.08635   0.10178   0.13394
 Alpha virt. eigenvalues --    0.13471   0.14417   0.15461   0.17821   0.19401
 Alpha virt. eigenvalues --    0.19974   0.20651   0.22231   0.23753   0.24378

 Mulliken charges:
               1
     1  H    0.249253
     2  O   -0.199554
     3  O   -0.146004
     4  N    0.290152
     5  O   -0.193847
 Sum of Mulliken charges =   0.00000

 Dipole moment (field-independent basis, Debye):
    X=              0.5049    Y=              1.3771    Z=              0.0000  Tot=              1.4667
 Quadrupole moment (field-independent basis, Debye-Ang):
   XX=            -22.5667   YY=            -18.5510   ZZ=            -21.9853
   XY=              3.1982   XZ=              0.0000   YZ=             -0.0000

 Normal termination of Gaussian 16 at Mon Feb 14 22:10:35 2022.
