 Gaussian 16, Revision B.01,
 Gaussian 16:  ES64L-G16RevB.01 20-Dec-2017

 -------------------------------------
 #p SP mp2/aug-cc-pvtz density=current
 -------------------------------------

 -----
 title
 -----
 Symbolic Z-matrix:
 Charge =  0 Multiplicity = 1

                         Standard orientation:
 ---------------------------------------------------------------------
 Center     Atomic      Atomic             Coordinates (Angstroms)
 Number     Number       Type             X           Y           Z
 ---------------------------------------------------------------------
      1          1           0        1.565694    1.679894    0.000000
      2          8           0        1.465948    0.716066    0.000000
      3          8           0        0.000000    0.672904    0.000000
      4          7           0       -0.268622   -0.760934   -0.000000
      5          8           0       -1.426616   -0.933140   -0.000000
 ---------------------------------------------------------------------

 SCF Done:  E(RHF) =  -279.500656380     A.U. after   14 cycles
 E2 =    -0.9460061268D+00 EUMP2 =    -0.28044666250652D+03

 The electronic state is 1-A'.
 Alpha  occ. eigenvalues --  -20.69154 -20.68450 -20.66098 -15.81306  -1.62370
 Alpha  occ. eigenvalues --   -1.49116  -1.25648  -0.94791  -0.77158  -0.75826
 Alpha  occ. eigenvalues --   -0.71077  -0.67937  -0.61935  -0.58780  -0.48729
 Alpha  occ. eigenvalues --   -0.47276
 Alpha virt. eigenvalues --    0.02960   0.07166   0.08564   0.10166   0.13335
 Alpha virt. eigenvalues --    0.13397   0.14402   0.15448   0.17828   0.19428
 Alpha virt. eigenvalues --    0.19985   0.20623   0.21876   0.23115   0.23728

 Mulliken charges:
               1
     1  H    0.250926
     2  O   -0.202983
     3  O   -0.147762
     4  N    0.292693
     5  O   -0.192874
 Sum of Mulliken charges =  -0.00000

 Dipole moment (field-independent basis, Debye):
    X=              0.5104    Y=              1.3504    Z=             -0.0000  Tot=              1.4436
 Quadrupole moment (field-independent basis, Debye-Ang):
   XX=            -22.4049   YY=            -18.6586   ZZ=            -22.0265
   XY=              3.2925   XZ=             -0.0000   YZ=              0.0000

 Normal termination of Gaussian 16 at Mon Feb 14 22:09:55 2022.
