 Gaussian 16, Revision B.01,
 Gaussian 16:  ES64L-G16RevB.01 20-Dec-2017

 -------------------------------------
 #p SP mp2/aug-cc-pvtz density=current
 -------------------------------------

 -----
 title
 -----
 Symbolic Z-matrix:
 Charge =  0 Multiplicity = 1

                         Standard orientation:
 ---------------------------------------------------------------------
 Center     Atomic      Atomic             Coordinates (Angstroms)
 Number     Number       Type             X           Y           Z
 ---------------------------------------------------------------------
      1          1           0        1.524747    1.714444    0.000000
      2          8           0        1.452481    0.748167    0.000000
      3          8           0       -0.000000    0.663964    0.000000
      4          7           0       -0.259318   -0.771587   -0.000000
      5          8           0       -1.416171   -0.951299   -0.000000
 ---------------------------------------------------------------------

 SCF Done:  E(RHF) =  -279.501709078     A.U. after   14 cycles
 E2 =    -0.9449574576D+00 EUMP2 =    -0.28044666653544D+03

 The electronic state is 1-A'.
 Alpha  occ. eigenvalues --  -20.69051 -20.68458 -20.66040 -15.81322  -1.62399
 Alpha  occ. eigenvalues --   -1.49538  -1.25500  -0.94783  -0.77183  -0.75968
 Alpha  occ. eigenvalues --   -0.71161  -0.68125  -0.62079  -0.58848  -0.48511
 Alpha  occ. eigenvalues --   -0.47224
 Alpha virt. eigenvalues --    0.02963   0.07152   0.08597   0.10206   0.13381
 Alpha virt. eigenvalues --    0.13382   0.14392   0.15410   0.17831   0.19430
 Alpha virt. eigenvalues --    0.19994   0.20618   0.22068   0.23526   0.23727

 Mulliken charges:
               1
     1  H    0.251963
     2  O   -0.204165
     3  O   -0.145308
     4  N    0.289560
     5  O   -0.192050
 Sum of Mulliken charges =  -0.00000

 Dipole moment (field-independent basis, Debye):
    X=              0.4762    Y=              1.3701    Z=              0.0000  Tot=              1.4505
 Quadrupole moment (field-independent basis, Debye-Ang):
   XX=            -22.6016   YY=            -18.4881   ZZ=            -22.0128
   XY=              3.2105   XZ=              0.0000   YZ=             -0.0000

 Normal termination of Gaussian 16 at Mon Feb 14 22:12:21 2022.
