 Gaussian 16, Revision B.01,
 Gaussian 16:  ES64L-G16RevB.01 20-Dec-2017

 -------------------------------------
 #p SP mp2/aug-cc-pvtz density=current
 -------------------------------------

 -----
 title
 -----
 Symbolic Z-matrix:
 Charge =  0 Multiplicity = 1

                         Standard orientation:
 ---------------------------------------------------------------------
 Center     Atomic      Atomic             Coordinates (Angstroms)
 Number     Number       Type             X           Y           Z
 ---------------------------------------------------------------------
      1          1           0        1.572287    1.659971   -0.000000
      2          8           0        1.454831    0.698141   -0.000000
      3          8           0       -0.000000    0.682077    0.000000
      4          7           0       -0.263466   -0.752718   -0.000000
      5          8           0       -1.420834   -0.929086    0.000000
 ---------------------------------------------------------------------

 SCF Done:  E(RHF) =  -279.501500394     A.U. after   14 cycles
 E2 =    -0.9451658395D+00 EUMP2 =    -0.28044666623379D+03

 The electronic state is 1-A'.
 Alpha  occ. eigenvalues --  -20.69120 -20.68401 -20.65955 -15.81245  -1.62408
 Alpha  occ. eigenvalues --   -1.49611  -1.25379  -0.94833  -0.77378  -0.75865
 Alpha  occ. eigenvalues --   -0.71198  -0.67739  -0.62011  -0.59036  -0.48532
 Alpha  occ. eigenvalues --   -0.47276
 Alpha virt. eigenvalues --    0.02962   0.07183   0.08592   0.10138   0.13407
 Alpha virt. eigenvalues --    0.13410   0.14423   0.15493   0.17820   0.19402
 Alpha virt. eigenvalues --    0.19968   0.20641   0.22100   0.23552   0.23749

 Mulliken charges:
               1
     1  H    0.248436
     2  O   -0.198793
     3  O   -0.149159
     4  N    0.293884
     5  O   -0.194368
 Sum of Mulliken charges =  -0.00000

 Dipole moment (field-independent basis, Debye):
    X=              0.5395    Y=              1.3500    Z=              0.0000  Tot=              1.4538
 Quadrupole moment (field-independent basis, Debye-Ang):
   XX=            -22.3371   YY=            -18.7437   ZZ=            -22.0079
   XY=              3.2939   XZ=              0.0000   YZ=             -0.0000

 Normal termination of Gaussian 16 at Mon Feb 14 22:12:39 2022.
