 Gaussian 16, Revision B.01,
 Gaussian 16:  ES64L-G16RevB.01 20-Dec-2017

 -------------------------------------
 #p SP mp2/aug-cc-pvtz density=current
 -------------------------------------

 -----
 title
 -----
 Symbolic Z-matrix:
 Charge =  0 Multiplicity = 1

                         Standard orientation:
 ---------------------------------------------------------------------
 Center     Atomic      Atomic             Coordinates (Angstroms)
 Number     Number       Type             X           Y           Z
 ---------------------------------------------------------------------
      1          1           0        1.548037    1.683981    0.000000
      2          8           0        1.454010    0.719578    0.000000
      3          8           0        0.000000    0.668135    0.000000
      4          7           0       -0.260113   -0.767271   -0.000000
      5          8           0       -1.419915   -0.926849   -0.000000
 ---------------------------------------------------------------------

 SCF Done:  E(RHF) =  -279.501677074     A.U. after   14 cycles
 E2 =    -0.9449895387D+00 EUMP2 =    -0.28044666661285D+03

 The electronic state is 1-A'.
 Alpha  occ. eigenvalues --  -20.69048 -20.68395 -20.65935 -15.81316  -1.62484
 Alpha  occ. eigenvalues --   -1.49502  -1.25362  -0.94832  -0.77225  -0.75952
 Alpha  occ. eigenvalues --   -0.71198  -0.67912  -0.62007  -0.58858  -0.48476
 Alpha  occ. eigenvalues --   -0.47365
 Alpha virt. eigenvalues --    0.02970   0.07126   0.08613   0.10170   0.13390
 Alpha virt. eigenvalues --    0.13390   0.14413   0.15446   0.17836   0.19413
 Alpha virt. eigenvalues --    0.19985   0.20654   0.22080   0.23638   0.23751

 Mulliken charges:
               1
     1  H    0.250206
     2  O   -0.203693
     3  O   -0.145771
     4  N    0.292860
     5  O   -0.193602
 Sum of Mulliken charges =  -0.00000

 Dipole moment (field-independent basis, Debye):
    X=              0.5107    Y=              1.3479    Z=              0.0000  Tot=              1.4414
 Quadrupole moment (field-independent basis, Debye-Ang):
   XX=            -22.4998   YY=            -18.6097   ZZ=            -22.0055
   XY=              3.2322   XZ=             -0.0000   YZ=             -0.0000

 Normal termination of Gaussian 16 at Mon Feb 14 22:13:15 2022.
