 Gaussian 16, Revision B.01,
 Gaussian 16:  ES64L-G16RevB.01 20-Dec-2017

 -------------------------------------
 #p SP mp2/aug-cc-pvtz density=current
 -------------------------------------

 -----
 title
 -----
 Symbolic Z-matrix:
 Charge =  0 Multiplicity = 1

                         Standard orientation:
 ---------------------------------------------------------------------
 Center     Atomic      Atomic             Coordinates (Angstroms)
 Number     Number       Type             X           Y           Z
 ---------------------------------------------------------------------
      1          1           0        1.546551    1.691379   -0.000000
      2          8           0        1.453933    0.726840   -0.000000
      3          8           0       -0.000000    0.673272   -0.000000
      4          7           0       -0.258015   -0.762513    0.000000
      5          8           0       -1.421488   -0.944335    0.000000
 ---------------------------------------------------------------------

 SCF Done:  E(RHF) =  -279.500446238     A.U. after   14 cycles
 E2 =    -0.9462263607D+00 EUMP2 =    -0.28044667259900D+03

 The electronic state is 1-A'.
 Alpha  occ. eigenvalues --  -20.69248 -20.68402 -20.66085 -15.81383  -1.61857
 Alpha  occ. eigenvalues --   -1.49559  -1.25510  -0.94901  -0.77203  -0.75738
 Alpha  occ. eigenvalues --   -0.71048  -0.67852  -0.61902  -0.58986  -0.48578
 Alpha  occ. eigenvalues --   -0.47383
 Alpha virt. eigenvalues --    0.02944   0.06956   0.08605   0.10172   0.13386
 Alpha virt. eigenvalues --    0.13409   0.14393   0.15436   0.17814   0.19425
 Alpha virt. eigenvalues --    0.19956   0.20635   0.22058   0.23486   0.23733

 Mulliken charges:
               1
     1  H    0.250495
     2  O   -0.201040
     3  O   -0.145660
     4  N    0.290975
     5  O   -0.194770
 Sum of Mulliken charges =  -0.00000

 Dipole moment (field-independent basis, Debye):
    X=              0.5337    Y=              1.3909    Z=             -0.0000  Tot=              1.4898
 Quadrupole moment (field-independent basis, Debye-Ang):
   XX=            -22.5044   YY=            -18.6157   ZZ=            -22.0218
   XY=              3.2332   XZ=             -0.0000   YZ=             -0.0000

 Normal termination of Gaussian 16 at Mon Feb 14 22:11:08 2022.
