 Gaussian 16, Revision B.01,
 Gaussian 16:  ES64L-G16RevB.01 20-Dec-2017

 -------------------------------------
 #p SP mp2/aug-cc-pvtz density=current
 -------------------------------------

 -----
 title
 -----
 Symbolic Z-matrix:
 Charge =  0 Multiplicity = 1

                         Standard orientation:
 ---------------------------------------------------------------------
 Center     Atomic      Atomic             Coordinates (Angstroms)
 Number     Number       Type             X           Y           Z
 ---------------------------------------------------------------------
      1          1           0        1.548224    1.678944    0.000000
      2          8           0        1.454061    0.723239    0.000000
      3          8           0       -0.000000    0.673278    0.000000
      4          7           0       -0.261576   -0.761863    0.000000
      5          8           0       -1.418710   -0.939755    0.000000
 ---------------------------------------------------------------------

 SCF Done:  E(RHF) =  -279.502030603     A.U. after   14 cycles
 E2 =    -0.9446344760D+00 EUMP2 =    -0.28044666507913D+03

 The electronic state is 1-A'.
 Alpha  occ. eigenvalues --  -20.69112 -20.68446 -20.65930 -15.81301  -1.62423
 Alpha  occ. eigenvalues --   -1.49683  -1.25612  -0.94827  -0.77352  -0.75987
 Alpha  occ. eigenvalues --   -0.71200  -0.68069  -0.62072  -0.58984  -0.48552
 Alpha  occ. eigenvalues --   -0.47274
 Alpha virt. eigenvalues --    0.02979   0.07154   0.08591   0.10170   0.13389
 Alpha virt. eigenvalues --    0.13394   0.14443   0.15486   0.17813   0.19415
 Alpha virt. eigenvalues --    0.19978   0.20637   0.22078   0.23518   0.23730

 Mulliken charges:
               1
     1  H    0.242912
     2  O   -0.194253
     3  O   -0.147721
     4  N    0.292327
     5  O   -0.193265
 Sum of Mulliken charges =  -0.00000

 Dipole moment (field-independent basis, Debye):
    X=              0.5037    Y=              1.3497    Z=              0.0000  Tot=              1.4406
 Quadrupole moment (field-independent basis, Debye-Ang):
   XX=            -22.4652   YY=            -18.6492   ZZ=            -21.9994
   XY=              3.2389   XZ=             -0.0000   YZ=              0.0000

 Normal termination of Gaussian 16 at Mon Feb 14 22:09:36 2022.
