 Gaussian 16, Revision B.01,
 Gaussian 16:  ES64L-G16RevB.01 20-Dec-2017

 -------------------------------------
 #p SP mp2/aug-cc-pvtz density=current
 -------------------------------------

 -----
 title
 -----
 Symbolic Z-matrix:
 Charge =  0 Multiplicity = 1

                         Standard orientation:
 ---------------------------------------------------------------------
 Center     Atomic      Atomic             Coordinates (Angstroms)
 Number     Number       Type             X           Y           Z
 ---------------------------------------------------------------------
      1          1           0        1.523723    1.690950    0.000000
      2          8           0        1.454006    0.724485    0.000000
      3          8           0       -0.000000    0.672944    0.000000
      4          7           0       -0.260016   -0.762480   -0.000000
      5          8           0       -1.416957   -0.941629   -0.000000
 ---------------------------------------------------------------------

 SCF Done:  E(RHF) =  -279.501415114     A.U. after   14 cycles
 E2 =    -0.9452539535D+00 EUMP2 =    -0.28044666906773D+03

 The electronic state is 1-A'.
 Alpha  occ. eigenvalues --  -20.69072 -20.68427 -20.66054 -15.81280  -1.62410
 Alpha  occ. eigenvalues --   -1.49665  -1.25419  -0.94815  -0.77351  -0.75825
 Alpha  occ. eigenvalues --   -0.71196  -0.67897  -0.62071  -0.59076  -0.48540
 Alpha  occ. eigenvalues --   -0.47252
 Alpha virt. eigenvalues --    0.02979   0.07161   0.08593   0.10167   0.13388
 Alpha virt. eigenvalues --    0.13405   0.14410   0.15461   0.17821   0.19403
 Alpha virt. eigenvalues --    0.19968   0.20640   0.22074   0.23537   0.23736

 Mulliken charges:
               1
     1  H    0.252288
     2  O   -0.201734
     3  O   -0.148329
     4  N    0.291162
     5  O   -0.193386
 Sum of Mulliken charges =  -0.00000

 Dipole moment (field-independent basis, Debye):
    X=              0.4749    Y=              1.3581    Z=              0.0000  Tot=              1.4387
 Quadrupole moment (field-independent basis, Debye-Ang):
   XX=            -22.5890   YY=            -18.6012   ZZ=            -22.0079
   XY=              3.1701   XZ=              0.0000   YZ=             -0.0000

 Normal termination of Gaussian 16 at Mon Feb 14 22:12:03 2022.
