 Gaussian 16, Revision B.01,
 Gaussian 16:  ES64L-G16RevB.01 20-Dec-2017

 -------------------------------------
 #p SP mp2/aug-cc-pvtz density=current
 -------------------------------------

 -----
 title
 -----
 Symbolic Z-matrix:
 Charge =  0 Multiplicity = 1

                         Standard orientation:
 ---------------------------------------------------------------------
 Center     Atomic      Atomic             Coordinates (Angstroms)
 Number     Number       Type             X           Y           Z
 ---------------------------------------------------------------------
      1          1           0        2.244725    0.430044    0.105978
      2          8           0        1.599055   -0.283215   -0.009284
      3          8           0        0.400279    0.541234   -0.012425
      4          7           0       -0.663365   -0.456970    0.004921
      5          8           0       -1.699480    0.088074    0.004156
 ---------------------------------------------------------------------

 SCF Done:  E(RHF) =  -279.501737877     A.U. after   14 cycles
 E2 =    -0.9450647177D+00 EUMP2 =    -0.28044680259508D+03

 The electronic state is 1-A.
 Alpha  occ. eigenvalues --  -20.69095 -20.68428 -20.66005 -15.81278  -1.62403
 Alpha  occ. eigenvalues --   -1.49578  -1.25442  -0.94808  -0.77267  -0.75930
 Alpha  occ. eigenvalues --   -0.71226  -0.67913  -0.62021  -0.58917  -0.48597
 Alpha  occ. eigenvalues --   -0.47214
 Alpha virt. eigenvalues --    0.02961   0.07166   0.08594   0.10173   0.13302
 Alpha virt. eigenvalues --    0.13469   0.14400   0.15449   0.17820   0.19415
 Alpha virt. eigenvalues --    0.19956   0.20647   0.22081   0.23540   0.23733

 Mulliken charges:
               1
     1  H    0.250159
     2  O   -0.201611
     3  O   -0.147103
     4  N    0.291856
     5  O   -0.193301
 Sum of Mulliken charges =  -0.00000

 Dipole moment (field-independent basis, Debye):
    X=              1.2113    Y=              0.7825    Z=              0.2012  Tot=              1.4560
 Quadrupole moment (field-independent basis, Debye-Ang):
   XX=            -18.0331   YY=            -23.1055   ZZ=            -21.9783
   XY=              2.7638   XZ=              0.5310   YZ=              0.1633

 Normal termination of Gaussian 16 at Mon Feb 14 22:13:40 2022.
