 Gaussian 16, Revision B.01,
 Gaussian 16:  ES64L-G16RevB.01 20-Dec-2017

 -------------------------------------
 #p SP mp2/aug-cc-pvtz density=current
 -------------------------------------

 -----
 title
 -----
 Symbolic Z-matrix:
 Charge =  0 Multiplicity = 1

                         Standard orientation:
 ---------------------------------------------------------------------
 Center     Atomic      Atomic             Coordinates (Angstroms)
 Number     Number       Type             X           Y           Z
 ---------------------------------------------------------------------
      1          1           0        1.550000    1.695488   -0.000000
      2          8           0        1.454065    0.722587    0.000000
      3          8           0        0.000000    0.672740   -0.000000
      4          7           0       -0.261689   -0.762380    0.000000
      5          8           0       -1.418837   -0.940181   -0.000000
 ---------------------------------------------------------------------

 SCF Done:  E(RHF) =  -279.501207169     A.U. after   14 cycles
 E2 =    -0.9454605414D+00 EUMP2 =    -0.28044666770988D+03

 The electronic state is 1-A'.
 Alpha  occ. eigenvalues --  -20.69065 -20.68413 -20.66065 -15.81266  -1.62383
 Alpha  occ. eigenvalues --   -1.49470  -1.25274  -0.94787  -0.77210  -0.75848
 Alpha  occ. eigenvalues --   -0.71159  -0.67804  -0.62020  -0.58901  -0.48493
 Alpha  occ. eigenvalues --   -0.47227
 Alpha virt. eigenvalues --    0.02946   0.07181   0.08598   0.10174   0.13396
 Alpha virt. eigenvalues --    0.13402   0.14370   0.15422   0.17838   0.19420
 Alpha virt. eigenvalues --    0.19984   0.20636   0.22084   0.23566   0.23746

 Mulliken charges:
               1
     1  H    0.257201
     2  O   -0.208537
     3  O   -0.146584
     4  N    0.291161
     5  O   -0.193240
 Sum of Mulliken charges =  -0.00000

 Dipole moment (field-independent basis, Debye):
    X=              0.5128    Y=              1.3718    Z=             -0.0000  Tot=              1.4645
 Quadrupole moment (field-independent basis, Debye-Ang):
   XX=            -22.4729   YY=            -18.5821   ZZ=            -22.0212
   XY=              3.2731   XZ=              0.0000   YZ=              0.0000

 Normal termination of Gaussian 16 at Mon Feb 14 22:09:17 2022.
