 Gaussian 16, Revision B.01,
 Gaussian 16:  ES64L-G16RevB.01 20-Dec-2017

 -------------------------------------
 #p SP mp2/aug-cc-pvtz density=current
 -------------------------------------

 -----
 title
 -----
 Symbolic Z-matrix:
 Charge =  0 Multiplicity = 1

                         Standard orientation:
 ---------------------------------------------------------------------
 Center     Atomic      Atomic             Coordinates (Angstroms)
 Number     Number       Type             X           Y           Z
 ---------------------------------------------------------------------
      1          1           0        1.550291    1.690274   -0.000000
      2          8           0        1.454120    0.726083   -0.000000
      3          8           0        0.000000    0.677871    0.000000
      4          7           0       -0.263303   -0.756954    0.000000
      5          8           0       -1.417517   -0.952903    0.000000
 ---------------------------------------------------------------------

 SCF Done:  E(RHF) =  -279.501547873     A.U. after   14 cycles
 E2 =    -0.9451183233D+00 EUMP2 =    -0.28044666619617D+03

 The electronic state is 1-A'.
 Alpha  occ. eigenvalues --  -20.69129 -20.68463 -20.66059 -15.81249  -1.62324
 Alpha  occ. eigenvalues --   -1.49645  -1.25518  -0.94782  -0.77329  -0.75886
 Alpha  occ. eigenvalues --   -0.71161  -0.67962  -0.62083  -0.59025  -0.48567
 Alpha  occ. eigenvalues --   -0.47131
 Alpha virt. eigenvalues --    0.02955   0.07208   0.08575   0.10173   0.13401
 Alpha virt. eigenvalues --    0.13401   0.14404   0.15460   0.17816   0.19421
 Alpha virt. eigenvalues --    0.19977   0.20617   0.22082   0.23448   0.23725

 Mulliken charges:
               1
     1  H    0.250292
     2  O   -0.199521
     3  O   -0.148492
     4  N    0.290630
     5  O   -0.192910
 Sum of Mulliken charges =  -0.00000

 Dipole moment (field-independent basis, Debye):
    X=              0.5053    Y=              1.3731    Z=             -0.0000  Tot=              1.4631
 Quadrupole moment (field-independent basis, Debye-Ang):
   XX=            -22.4383   YY=            -18.6220   ZZ=            -22.0152
   XY=              3.2796   XZ=              0.0000   YZ=             -0.0000

 Normal termination of Gaussian 16 at Mon Feb 14 22:12:57 2022.
