 Gaussian 16, Revision B.01,
 Gaussian 16:  ES64L-G16RevB.01 20-Dec-2017

 -------------------------------------
 #p SP mp2/aug-cc-pvtz density=current
 -------------------------------------

 -----
 title
 -----
 Symbolic Z-matrix:
 Charge =  0 Multiplicity = 1

                         Standard orientation:
 ---------------------------------------------------------------------
 Center     Atomic      Atomic             Coordinates (Angstroms)
 Number     Number       Type             X           Y           Z
 ---------------------------------------------------------------------
      1          1           0        1.574430    1.682842    0.000000
      2          8           0        1.454118    0.721365    0.000000
      3          8           0        0.000000    0.673093    0.000000
      4          7           0       -0.263243   -0.761742   -0.000000
      5          8           0       -1.420584   -0.938289   -0.000000
 ---------------------------------------------------------------------

 SCF Done:  E(RHF) =  -279.501803808     A.U. after   14 cycles
 E2 =    -0.9448599500D+00 EUMP2 =    -0.28044666375781D+03

 The electronic state is 1-A'.
 Alpha  occ. eigenvalues --  -20.69108 -20.68434 -20.65937 -15.81289  -1.62399
 Alpha  occ. eigenvalues --   -1.49487  -1.25461  -0.94802  -0.77210  -0.76010
 Alpha  occ. eigenvalues --   -0.71165  -0.67973  -0.62020  -0.58806  -0.48504
 Alpha  occ. eigenvalues --   -0.47250
 Alpha virt. eigenvalues --    0.02947   0.07172   0.08595   0.10177   0.13382
 Alpha virt. eigenvalues --    0.13403   0.14409   0.15446   0.17830   0.19432
 Alpha virt. eigenvalues --    0.19993   0.20630   0.22087   0.23542   0.23739

 Mulliken charges:
               1
     1  H    0.248420
     2  O   -0.201657
     3  O   -0.145996
     4  N    0.292326
     5  O   -0.193093
 Sum of Mulliken charges =  -0.00000

 Dipole moment (field-independent basis, Debye):
    X=              0.5410    Y=              1.3621    Z=              0.0000  Tot=              1.4656
 Quadrupole moment (field-independent basis, Debye-Ang):
   XX=            -22.3462   YY=            -18.6346   ZZ=            -22.0128
   XY=              3.3397   XZ=             -0.0000   YZ=             -0.0000

 Normal termination of Gaussian 16 at Mon Feb 14 22:11:45 2022.
