 Gaussian 16, Revision B.01,
 Gaussian 16:  ES64L-G16RevB.01 20-Dec-2017

 -------------------------------------
 #p SP mp2/aug-cc-pvtz density=current
 -------------------------------------

 -----
 title
 -----
 Symbolic Z-matrix:
 Charge =  0 Multiplicity = 1

                         Standard orientation:
 ---------------------------------------------------------------------
 Center     Atomic      Atomic             Coordinates (Angstroms)
 Number     Number       Type             X           Y           Z
 ---------------------------------------------------------------------
      1          1           0        1.569790    1.683693    0.000000
      2          8           0        1.454108    0.721647    0.000000
      3          8           0       -0.000000    0.673077    0.000000
      4          7           0       -0.262948   -0.761813   -0.000000
      5          8           0       -1.420252   -0.938599   -0.000000
 ---------------------------------------------------------------------

 SCF Done:  E(RHF) =  -279.501794145     A.U. after   14 cycles
 E2 =    -0.9448927600D+00 EUMP2 =    -0.28044668690471D+03

 The electronic state is 1-A'.
 Alpha  occ. eigenvalues --  -20.69104 -20.68433 -20.65949 -15.81288  -1.62399
 Alpha  occ. eigenvalues --   -1.49503  -1.25458  -0.94803  -0.77222  -0.75993
 Alpha  occ. eigenvalues --   -0.71168  -0.67967  -0.62025  -0.58831  -0.48508
 Alpha  occ. eigenvalues --   -0.47250
 Alpha virt. eigenvalues --    0.02950   0.07171   0.08595   0.10176   0.13385
 Alpha virt. eigenvalues --    0.13401   0.14408   0.15447   0.17829   0.19429
 Alpha virt. eigenvalues --    0.19991   0.20631   0.22086   0.23543   0.23739

 Mulliken charges:
               1
     1  H    0.248745
     2  O   -0.201630
     3  O   -0.146210
     4  N    0.292219
     5  O   -0.193124
 Sum of Mulliken charges =  -0.00000

 Dipole moment (field-independent basis, Debye):
    X=              0.5351    Y=              1.3619    Z=              0.0000  Tot=              1.4633
 Quadrupole moment (field-independent basis, Debye-Ang):
   XX=            -22.3690   YY=            -18.6308   ZZ=            -22.0124
   XY=              3.3245   XZ=             -0.0000   YZ=             -0.0000

 Normal termination of Gaussian 16 at Mon Feb 14 12:41:38 2022.
