 Gaussian 16, Revision B.01,
 Gaussian 16:  ES64L-G16RevB.01 20-Dec-2017

 -------------------------------------
 #p SP mp2/aug-cc-pvtz density=current
 -------------------------------------

 -----
 title
 -----
 Symbolic Z-matrix:
 Charge =  0 Multiplicity = 1

                         Standard orientation:
 ---------------------------------------------------------------------
 Center     Atomic      Atomic             Coordinates (Angstroms)
 Number     Number       Type             X           Y           Z
 ---------------------------------------------------------------------
      1          1           0        1.550998    1.677526   -0.000000
      2          8           0        1.454154    0.713402   -0.000000
      3          8           0       -0.000000    0.666206   -0.000000
      4          7           0       -0.261631   -0.753924    0.000000
      5          8           0       -1.419101   -0.929616    0.000000
 ---------------------------------------------------------------------

 SCF Done:  E(RHF) =  -279.503053309     A.U. after   14 cycles
 E2 =    -0.9436366021D+00 EUMP2 =    -0.28044668991116D+03

 The electronic state is 1-A'.
 Alpha  occ. eigenvalues --  -20.69338 -20.68078 -20.66178 -15.81047  -1.62496
 Alpha  occ. eigenvalues --   -1.49777  -1.25886  -0.94699  -0.77398  -0.76096
 Alpha  occ. eigenvalues --   -0.71441  -0.67861  -0.61968  -0.59020  -0.48672
 Alpha  occ. eigenvalues --   -0.47307
 Alpha virt. eigenvalues --    0.02922   0.07358   0.08621   0.10188   0.13383
 Alpha virt. eigenvalues --    0.13402   0.14378   0.15424   0.17793   0.19420
 Alpha virt. eigenvalues --    0.19988   0.20821   0.22038   0.23476   0.23756

 Mulliken charges:
               1
     1  H    0.250385
     2  O   -0.200580
     3  O   -0.137471
     4  N    0.287349
     5  O   -0.199683
 Sum of Mulliken charges =  -0.00000

 Dipole moment (field-independent basis, Debye):
    X=              0.5756    Y=              1.4453    Z=             -0.0000  Tot=              1.5557
 Quadrupole moment (field-independent basis, Debye-Ang):
   XX=            -22.4945   YY=            -18.6782   ZZ=            -21.9891
   XY=              3.2281   XZ=              0.0000   YZ=              0.0000

 Normal termination of Gaussian 16 at Mon Feb 14 12:43:23 2022.
