 Gaussian 16, Revision B.01,
 Gaussian 16:  ES64L-G16RevB.01 20-Dec-2017

 -------------------------------------
 #p SP mp2/aug-cc-pvtz density=current
 -------------------------------------

 -----
 title
 -----
 Symbolic Z-matrix:
 Charge =  0 Multiplicity = 1

                         Standard orientation:
 ---------------------------------------------------------------------
 Center     Atomic      Atomic             Coordinates (Angstroms)
 Number     Number       Type             X           Y           Z
 ---------------------------------------------------------------------
      1          1           0        1.547022    1.690615    0.000000
      2          8           0        1.453957    0.726119    0.000000
      3          8           0        0.000000    0.673223    0.000000
      4          7           0       -0.258679   -0.762442    0.000000
      5          8           0       -1.420991   -0.943532    0.000000
 ---------------------------------------------------------------------

 SCF Done:  E(RHF) =  -279.500684764     A.U. after   14 cycles
 E2 =    -0.9460091452D+00 EUMP2 =    -0.28044669390945D+03

 The electronic state is 1-A'.
 Alpha  occ. eigenvalues --  -20.69219 -20.68407 -20.66069 -15.81365  -1.61956
 Alpha  occ. eigenvalues --   -1.49562  -1.25497  -0.94884  -0.77216  -0.75771
 Alpha  occ. eigenvalues --   -0.71071  -0.67868  -0.61929  -0.58979  -0.48568
 Alpha  occ. eigenvalues --   -0.47359
 Alpha virt. eigenvalues --    0.02948   0.06995   0.08603   0.10172   0.13387
 Alpha virt. eigenvalues --    0.13406   0.14396   0.15440   0.17816   0.19424
 Alpha virt. eigenvalues --    0.19960   0.20636   0.22063   0.23496   0.23734

 Mulliken charges:
               1
     1  H    0.250453
     2  O   -0.201140
     3  O   -0.145934
     4  N    0.291121
     5  O   -0.194499
 Sum of Mulliken charges =  -0.00000

 Dipole moment (field-independent basis, Debye):
    X=              0.5291    Y=              1.3854    Z=             -0.0000  Tot=              1.4830
 Quadrupole moment (field-independent basis, Debye-Ang):
   XX=            -22.4980   YY=            -18.6158   ZZ=            -22.0197
   XY=              3.2373   XZ=              0.0000   YZ=              0.0000

 Normal termination of Gaussian 16 at Mon Feb 14 12:46:14 2022.
