 Gaussian 16, Revision B.01,
 Gaussian 16:  ES64L-G16RevB.01 20-Dec-2017

 -------------------------------------
 #p SP mp2/aug-cc-pvtz density=current
 -------------------------------------

 -----
 title
 -----
 Symbolic Z-matrix:
 Charge =  0 Multiplicity = 1

                         Standard orientation:
 ---------------------------------------------------------------------
 Center     Atomic      Atomic             Coordinates (Angstroms)
 Number     Number       Type             X           Y           Z
 ---------------------------------------------------------------------
      1          1           0        1.535549    1.693101    0.000000
      2          8           0        1.444336    0.728428    0.000000
      3          8           0       -0.000000    0.673106    0.000000
      4          7           0       -0.255923   -0.763053   -0.000000
      5          8           0       -1.412348   -0.945501   -0.000000
 ---------------------------------------------------------------------

 SCF Done:  E(RHF) =  -279.502421158     A.U. after   14 cycles
 E2 =    -0.9442716199D+00 EUMP2 =    -0.28044669277814D+03

 The electronic state is 1-A'.
 Alpha  occ. eigenvalues --  -20.69034 -20.68413 -20.65916 -15.81264  -1.62434
 Alpha  occ. eigenvalues --   -1.49957  -1.25270  -0.94820  -0.77381  -0.75996
 Alpha  occ. eigenvalues --   -0.71269  -0.67941  -0.62137  -0.59070  -0.48350
 Alpha  occ. eigenvalues --   -0.47228
 Alpha virt. eigenvalues --    0.02964   0.07169   0.08617   0.10176   0.13395
 Alpha virt. eigenvalues --    0.13438   0.14413   0.15457   0.17823   0.19409
 Alpha virt. eigenvalues --    0.19977   0.20645   0.22177   0.23746   0.23972

 Mulliken charges:
               1
     1  H    0.249722
     2  O   -0.200487
     3  O   -0.146580
     4  N    0.290914
     5  O   -0.193568
 Sum of Mulliken charges =  -0.00000

 Dipole moment (field-independent basis, Debye):
    X=              0.5065    Y=              1.3694    Z=              0.0000  Tot=              1.4601
 Quadrupole moment (field-independent basis, Debye-Ang):
   XX=            -22.5212   YY=            -18.5810   ZZ=            -21.9970
   XY=              3.2254   XZ=              0.0000   YZ=             -0.0000

 Normal termination of Gaussian 16 at Mon Feb 14 12:41:20 2022.
