 Gaussian 16, Revision B.01,
 Gaussian 16:  ES64L-G16RevB.01 20-Dec-2017

 -------------------------------------
 #p SP mp2/aug-cc-pvtz density=current
 -------------------------------------

 -----
 title
 -----
 Symbolic Z-matrix:
 Charge =  0 Multiplicity = 1

                         Standard orientation:
 ---------------------------------------------------------------------
 Center     Atomic      Atomic             Coordinates (Angstroms)
 Number     Number       Type             X           Y           Z
 ---------------------------------------------------------------------
      1          1           0        2.246110    0.431601    0.086574
      2          8           0        1.598986   -0.283437   -0.007579
      3          8           0        0.400303    0.541149   -0.010171
      4          7           0       -0.663466   -0.456971    0.004037
      5          8           0       -1.699520    0.088188    0.003396
 ---------------------------------------------------------------------

 SCF Done:  E(RHF) =  -279.501721296     A.U. after   14 cycles
 E2 =    -0.9450588017D+00 EUMP2 =    -0.28044678009776D+03

 The electronic state is 1-A.
 Alpha  occ. eigenvalues --  -20.69093 -20.68429 -20.66002 -15.81280  -1.62403
 Alpha  occ. eigenvalues --   -1.49577  -1.25442  -0.94807  -0.77271  -0.75926
 Alpha  occ. eigenvalues --   -0.71210  -0.67921  -0.62029  -0.58926  -0.48573
 Alpha  occ. eigenvalues --   -0.47226
 Alpha virt. eigenvalues --    0.02961   0.07167   0.08594   0.10173   0.13321
 Alpha virt. eigenvalues --    0.13456   0.14403   0.15450   0.17822   0.19416
 Alpha virt. eigenvalues --    0.19964   0.20644   0.22081   0.23541   0.23734

 Mulliken charges:
               1
     1  H    0.250189
     2  O   -0.201599
     3  O   -0.147123
     4  N    0.291818
     5  O   -0.193285
 Sum of Mulliken charges =  -0.00000

 Dipole moment (field-independent basis, Debye):
    X=              1.2136    Y=              0.7855    Z=              0.1644  Tot=              1.4549
 Quadrupole moment (field-independent basis, Debye-Ang):
   XX=            -18.0193   YY=            -23.1014   ZZ=            -21.9889
   XY=              2.7739   XZ=              0.4341   YZ=              0.1339

 Normal termination of Gaussian 16 at Mon Feb 14 12:42:04 2022.
