 Gaussian 16, Revision B.01,
 Gaussian 16:  ES64L-G16RevB.01 20-Dec-2017

 -------------------------------------
 #p SP mp2/aug-cc-pvtz density=current
 -------------------------------------

 -----
 title
 -----
 Symbolic Z-matrix:
 Charge =  0 Multiplicity = 1

                         Standard orientation:
 ---------------------------------------------------------------------
 Center     Atomic      Atomic             Coordinates (Angstroms)
 Number     Number       Type             X           Y           Z
 ---------------------------------------------------------------------
      1          1           0        1.568121    1.664971    0.000000
      2          8           0        1.454749    0.702651   -0.000000
      3          8           0        0.000000    0.680411    0.000000
      4          7           0       -0.263165   -0.754439   -0.000000
      5          8           0       -1.420495   -0.931049    0.000000
 ---------------------------------------------------------------------

 SCF Done:  E(RHF) =  -279.501547665     A.U. after   14 cycles
 E2 =    -0.9451417687D+00 EUMP2 =    -0.28044668943320D+03

 The electronic state is 1-A'.
 Alpha  occ. eigenvalues --  -20.69114 -20.68407 -20.65963 -15.81252  -1.62407
 Alpha  occ. eigenvalues --   -1.49604  -1.25391  -0.94828  -0.77360  -0.75875
 Alpha  occ. eigenvalues --   -0.71195  -0.67776  -0.62017  -0.59019  -0.48531
 Alpha  occ. eigenvalues --   -0.47271
 Alpha virt. eigenvalues --    0.02962   0.07180   0.08593   0.10144   0.13405
 Alpha virt. eigenvalues --    0.13407   0.14420   0.15486   0.17821   0.19405
 Alpha virt. eigenvalues --    0.19971   0.20641   0.22096   0.23551   0.23747

 Mulliken charges:
               1
     1  H    0.248780
     2  O   -0.199323
     3  O   -0.148782
     4  N    0.293495
     5  O   -0.194170
 Sum of Mulliken charges =  -0.00000

 Dipole moment (field-independent basis, Debye):
    X=              0.5338    Y=              1.3521    Z=              0.0000  Tot=              1.4537
 Quadrupole moment (field-independent basis, Debye-Ang):
   XX=            -22.3612   YY=            -18.7202   ZZ=            -22.0084
   XY=              3.2875   XZ=             -0.0000   YZ=              0.0000

 Normal termination of Gaussian 16 at Mon Feb 14 12:42:40 2022.
