 Gaussian 16, Revision B.01,
 Gaussian 16:  ES64L-G16RevB.01 20-Dec-2017

 -------------------------------------
 #p SP mp2/aug-cc-pvtz density=current
 -------------------------------------

 -----
 title
 -----
 Symbolic Z-matrix:
 Charge =  0 Multiplicity = 1

                         Standard orientation:
 ---------------------------------------------------------------------
 Center     Atomic      Atomic             Coordinates (Angstroms)
 Number     Number       Type             X           Y           Z
 ---------------------------------------------------------------------
      1          1           0        1.548227    1.684588    0.000000
      2          8           0        1.454019    0.720203    0.000000
      3          8           0       -0.000000    0.669030    0.000000
      4          7           0       -0.260380   -0.766328   -0.000000
      5          8           0       -1.419715   -0.929270   -0.000000
 ---------------------------------------------------------------------

 SCF Done:  E(RHF) =  -279.501690538     A.U. after   14 cycles
 E2 =    -0.9449989921D+00 EUMP2 =    -0.28044668953053D+03

 The electronic state is 1-A'.
 Alpha  occ. eigenvalues --  -20.69055 -20.68402 -20.65947 -15.81310  -1.62469
 Alpha  occ. eigenvalues --   -1.49516  -1.25377  -0.94828  -0.77235  -0.75945
 Alpha  occ. eigenvalues --   -0.71195  -0.67917  -0.62014  -0.58874  -0.48485
 Alpha  occ. eigenvalues --   -0.47344
 Alpha virt. eigenvalues --    0.02969   0.07134   0.08610   0.10170   0.13391
 Alpha virt. eigenvalues --    0.13391   0.14412   0.15448   0.17834   0.19414
 Alpha virt. eigenvalues --    0.19984   0.20651   0.22080   0.23621   0.23749

 Mulliken charges:
               1
     1  H    0.250218
     2  O   -0.203304
     3  O   -0.146031
     4  N    0.292655
     5  O   -0.193538
 Sum of Mulliken charges =  -0.00000

 Dipole moment (field-independent basis, Debye):
    X=              0.5103    Y=              1.3503    Z=              0.0000  Tot=              1.4435
 Quadrupole moment (field-independent basis, Debye-Ang):
   XX=            -22.4942   YY=            -18.6108   ZZ=            -22.0064
   XY=              3.2366   XZ=             -0.0000   YZ=              0.0000

 Normal termination of Gaussian 16 at Mon Feb 14 12:44:43 2022.
