 Gaussian 16, Revision B.01,
 Gaussian 16:  ES64L-G16RevB.01 20-Dec-2017

 -------------------------------------
 #p SP mp2/aug-cc-pvtz density=current
 -------------------------------------

 -----
 title
 -----
 Symbolic Z-matrix:
 Charge =  0 Multiplicity = 1

                         Standard orientation:
 ---------------------------------------------------------------------
 Center     Atomic      Atomic             Coordinates (Angstroms)
 Number     Number       Type             X           Y           Z
 ---------------------------------------------------------------------
      1          1           0        1.562654    1.681247    0.000000
      2          8           0        1.463770    0.717330    0.000000
      3          8           0        0.000000    0.672922   -0.000000
      4          7           0       -0.267339   -0.761156   -0.000000
      5          8           0       -1.425179   -0.934397   -0.000000
 ---------------------------------------------------------------------

 SCF Done:  E(RHF) =  -279.500856261     A.U. after   14 cycles
 E2 =    -0.9458293308D+00 EUMP2 =    -0.28044668559152D+03

 The electronic state is 1-A'.
 Alpha  occ. eigenvalues --  -20.69142 -20.68446 -20.66080 -15.81302  -1.62376
 Alpha  occ. eigenvalues --   -1.49200  -1.25610  -0.94794  -0.77179  -0.75842
 Alpha  occ. eigenvalues --   -0.71095  -0.67937  -0.61955  -0.58810  -0.48692
 Alpha  occ. eigenvalues --   -0.47271
 Alpha virt. eigenvalues --    0.02961   0.07166   0.08570   0.10167   0.13347
 Alpha virt. eigenvalues --    0.13397   0.14403   0.15449   0.17828   0.19426
 Alpha virt. eigenvalues --    0.19985   0.20626   0.21923   0.23182   0.23730

 Mulliken charges:
               1
     1  H    0.250804
     2  O   -0.202723
     3  O   -0.147661
     4  N    0.292524
     5  O   -0.192943
 Sum of Mulliken charges =  -0.00000

 Dipole moment (field-independent basis, Debye):
    X=              0.5100    Y=              1.3523    Z=              0.0000  Tot=              1.4453
 Quadrupole moment (field-independent basis, Debye-Ang):
   XX=            -22.4167   YY=            -18.6507   ZZ=            -22.0236
   XY=              3.2859   XZ=             -0.0000   YZ=             -0.0000

 Normal termination of Gaussian 16 at Mon Feb 14 12:42:22 2022.
