 Gaussian 16, Revision B.01,
 Gaussian 16:  ES64L-G16RevB.01 20-Dec-2017

 -------------------------------------
 #p SP mp2/aug-cc-pvtz density=current
 -------------------------------------

 -----
 title
 -----
 Symbolic Z-matrix:
 Charge =  0 Multiplicity = 1

                         Standard orientation:
 ---------------------------------------------------------------------
 Center     Atomic      Atomic             Coordinates (Angstroms)
 Number     Number       Type             X           Y           Z
 ---------------------------------------------------------------------
      1          1           0        1.547881    1.683465   -0.000000
      2          8           0        1.454002    0.719048   -0.000000
      3          8           0        0.000000    0.667380    0.000000
      4          7           0       -0.259892   -0.768067    0.000000
      5          8           0       -1.420081   -0.924803    0.000000
 ---------------------------------------------------------------------

 SCF Done:  E(RHF) =  -279.501661671     A.U. after   14 cycles
 E2 =    -0.9449819464D+00 EUMP2 =    -0.28044664361702D+03

 The electronic state is 1-A'.
 Alpha  occ. eigenvalues --  -20.69042 -20.68390 -20.65926 -15.81321  -1.62497
 Alpha  occ. eigenvalues --   -1.49491  -1.25349  -0.94837  -0.77217  -0.75957
 Alpha  occ. eigenvalues --   -0.71201  -0.67908  -0.62001  -0.58844  -0.48469
 Alpha  occ. eigenvalues --   -0.47382
 Alpha virt. eigenvalues --    0.02972   0.07120   0.08616   0.10170   0.13389
 Alpha virt. eigenvalues --    0.13389   0.14414   0.15445   0.17838   0.19412
 Alpha virt. eigenvalues --    0.19985   0.20657   0.22079   0.23653   0.23753

 Mulliken charges:
               1
     1  H    0.250195
     2  O   -0.204021
     3  O   -0.145551
     4  N    0.293034
     5  O   -0.193657
 Sum of Mulliken charges =  -0.00000

 Dipole moment (field-independent basis, Debye):
    X=              0.5110    Y=              1.3458    Z=             -0.0000  Tot=              1.4396
 Quadrupole moment (field-independent basis, Debye-Ang):
   XX=            -22.5046   YY=            -18.6087   ZZ=            -22.0048
   XY=              3.2285   XZ=              0.0000   YZ=              0.0000

 Normal termination of Gaussian 16 at Mon Feb 14 12:38:06 2022.
