 Gaussian 16, Revision B.01,
 Gaussian 16:  ES64L-G16RevB.01 20-Dec-2017

 -------------------------------------
 #p SP mp2/aug-cc-pvtz density=current
 -------------------------------------

 -----
 title
 -----
 Symbolic Z-matrix:
 Charge =  0 Multiplicity = 1

                         Standard orientation:
 ---------------------------------------------------------------------
 Center     Atomic      Atomic             Coordinates (Angstroms)
 Number     Number       Type             X           Y           Z
 ---------------------------------------------------------------------
      1          1           0        1.548087    1.677664    0.000000
      2          8           0        1.454061    0.723290    0.000000
      3          8           0       -0.000000    0.673319    0.000000
      4          7           0       -0.261567   -0.761823   -0.000000
      5          8           0       -1.418701   -0.939722   -0.000000
 ---------------------------------------------------------------------

 SCF Done:  E(RHF) =  -279.502070768     A.U. after   14 cycles
 E2 =    -0.9445707917D+00 EUMP2 =    -0.28044664156003D+03

 The electronic state is 1-A'.
 Alpha  occ. eigenvalues --  -20.69115 -20.68449 -20.65919 -15.81304  -1.62427
 Alpha  occ. eigenvalues --   -1.49700  -1.25638  -0.94830  -0.77364  -0.75998
 Alpha  occ. eigenvalues --   -0.71203  -0.68089  -0.62076  -0.58991  -0.48557
 Alpha  occ. eigenvalues --   -0.47277
 Alpha virt. eigenvalues --    0.02981   0.07152   0.08590   0.10169   0.13388
 Alpha virt. eigenvalues --    0.13393   0.14448   0.15491   0.17811   0.19415
 Alpha virt. eigenvalues --    0.19977   0.20637   0.22078   0.23514   0.23729

 Mulliken charges:
               1
     1  H    0.241739
     2  O   -0.193085
     3  O   -0.147806
     4  N    0.292418
     5  O   -0.193266
 Sum of Mulliken charges =  -0.00000

 Dipole moment (field-independent basis, Debye):
    X=              0.5029    Y=              1.3480    Z=              0.0000  Tot=              1.4388
 Quadrupole moment (field-independent basis, Debye-Ang):
   XX=            -22.4646   YY=            -18.6544   ZZ=            -21.9977
   XY=              3.2362   XZ=             -0.0000   YZ=             -0.0000

 Normal termination of Gaussian 16 at Mon Feb 14 12:37:48 2022.
