 Gaussian 16, Revision B.01,
 Gaussian 16:  ES64L-G16RevB.01 20-Dec-2017

 -------------------------------------
 #p SP mp2/aug-cc-pvtz density=current
 -------------------------------------

 -----
 title
 -----
 Symbolic Z-matrix:
 Charge =  0 Multiplicity = 1

                         Standard orientation:
 ---------------------------------------------------------------------
 Center     Atomic      Atomic             Coordinates (Angstroms)
 Number     Number       Type             X           Y           Z
 ---------------------------------------------------------------------
      1          1           0        1.578339    1.682109    0.000000
      2          8           0        1.454127    0.721128    0.000000
      3          8           0       -0.000000    0.673108    0.000000
      4          7           0       -0.263492   -0.761682   -0.000000
      5          8           0       -1.420863   -0.938028   -0.000000
 ---------------------------------------------------------------------

 SCF Done:  E(RHF) =  -279.501807930     A.U. after   14 cycles
 E2 =    -0.9448328082D+00 EUMP2 =    -0.28044664073790D+03

 The electronic state is 1-A'.
 Alpha  occ. eigenvalues --  -20.69111 -20.68435 -20.65927 -15.81290  -1.62398
 Alpha  occ. eigenvalues --   -1.49474  -1.25464  -0.94802  -0.77200  -0.76024
 Alpha  occ. eigenvalues --   -0.71163  -0.67978  -0.62016  -0.58784  -0.48502
 Alpha  occ. eigenvalues --   -0.47250
 Alpha virt. eigenvalues --    0.02945   0.07172   0.08595   0.10177   0.13379
 Alpha virt. eigenvalues --    0.13404   0.14409   0.15445   0.17831   0.19434
 Alpha virt. eigenvalues --    0.19995   0.20628   0.22088   0.23542   0.23740

 Mulliken charges:
               1
     1  H    0.248151
     2  O   -0.201686
     3  O   -0.145817
     4  N    0.292416
     5  O   -0.193065
 Sum of Mulliken charges =  -0.00000

 Dipole moment (field-independent basis, Debye):
    X=              0.5460    Y=              1.3621    Z=              0.0000  Tot=              1.4675
 Quadrupole moment (field-independent basis, Debye-Ang):
   XX=            -22.3270   YY=            -18.6379   ZZ=            -22.0132
   XY=              3.3524   XZ=              0.0000   YZ=             -0.0000

 Normal termination of Gaussian 16 at Mon Feb 14 12:35:27 2022.
