 Gaussian 16, Revision B.01,
 Gaussian 16:  ES64L-G16RevB.01 20-Dec-2017

 ---------------------------------------
 #p freq mp2/aug-cc-pvtz density=current
 ---------------------------------------

 -----
 title
 -----
 Symbolic Z-matrix:
 Charge =  0 Multiplicity = 1

                         Standard orientation:
 ---------------------------------------------------------------------
 Center     Atomic      Atomic             Coordinates (Angstroms)
 Number     Number       Type             X           Y           Z
 ---------------------------------------------------------------------
      1          1           0        1.578812    1.652043    0.000000
      2          8           0        1.454906    0.691022    0.000000
      3          8           0        0.000000    0.684719    0.000000
      4          7           0       -0.263912   -0.749994    0.000000
      5          8           0       -1.421334   -0.926002    0.000000
 ---------------------------------------------------------------------

 SCF Done:  E(RHF) =  -279.501413293     A.U. after   14 cycles
 E2 =    -0.9452060991D+00 EUMP2 =    -0.28044661939191D+03
 E2 =    -0.9452060991D+00 EUMP2 =    -0.28044661939191D+03

 The electronic state is 1-A'.
 Alpha  occ. eigenvalues --  -20.69128 -20.68393 -20.65943 -15.81234  -1.62410
 Alpha  occ. eigenvalues --   -1.49622  -1.25360  -0.94841  -0.77408  -0.75850
 Alpha  occ. eigenvalues --   -0.71204  -0.67679  -0.62000  -0.59062  -0.48535
 Alpha  occ. eigenvalues --   -0.47283
 Alpha virt. eigenvalues --    0.02962   0.07187   0.08591   0.10128   0.13410
 Alpha virt. eigenvalues --    0.13414   0.14428   0.15504   0.17819   0.19397
 Alpha virt. eigenvalues --    0.19965   0.20640   0.22107   0.23553   0.23752

 Mulliken charges:
               1
     1  H    0.247881
     2  O   -0.197938
     3  O   -0.149766
     4  N    0.294499
     5  O   -0.194676
 Sum of Mulliken charges =  -0.00000

 Dipole moment (field-independent basis, Debye):
    X=              0.5484    Y=              1.3466    Z=             -0.0000  Tot=              1.4540
 Quadrupole moment (field-independent basis, Debye-Ang):
   XX=            -22.2988   YY=            -18.7810   ZZ=            -22.0072
   XY=              3.3035   XZ=              0.0000   YZ=             -0.0000

  Exact polarizability:  34.007   9.255  29.950  -0.000   0.000  17.908
 Approx polarizability:  29.017   4.904  23.432  -0.000  -0.000  15.515

 ******    1 imaginary frequencies (negative Signs) ******

                      1                      2                      3
                     A"                     A"                     A'
 Frequencies --   -257.7007               224.9503               344.3853
 Red. masses --      1.1373                10.4433                 8.5042
 Frc consts  --      0.0445                 0.3114                 0.5943
 IR Inten    --    124.9575                 0.7531                13.2554

                      4                      5                      6
                     A'                     A'                     A'
 Frequencies --    465.9672               786.4703               966.6643
 Red. masses --     12.6736                13.1007                15.5152
 Frc consts  --      1.6213                 4.7743                 8.5420
 IR Inten    --    191.7286               168.8552                21.0010

                      7                      8                      9
                     A'                     A'                     A'
 Frequencies --   1370.7666              1678.1662              3778.6403
 Red. masses --      1.1310                13.1673                 1.0675
 Frc consts  --      1.2521                21.8482                 8.9801
 IR Inten    --    150.9755               141.1243                79.3879

 - Thermochemistry -
 -------------------
 Temperature   298.150 Kelvin.  Pressure   1.00000 Atm.
 Atom     1 has atomic number  1 and mass   1.00783

 Molecular mass:    62.99564 amu.
 Principal axes and moments of inertia in atomic units:
                           1         2         3
     Eigenvalues --    33.69346 355.74880 389.44226
           X            0.81691  -0.57677   0.00000
           Y            0.57677   0.81691   0.00000
           Z            0.00000   0.00000   1.00000
 This molecule is an asymmetric top.
 Rotational symmetry number  1.
 Rotational temperatures (Kelvin)      2.57065     0.24347     0.22241
 Rotational constants (GHZ):          53.56355     5.07308     4.63417
    1 imaginary frequencies ignored.
 Zero-point vibrational energy      57516.5 (Joules/Mol)
                                   13.74678 (Kcal/Mol)
 Warning -- explicit consideration of   3 degrees of freedom as
           vibrations may cause significant error
 Vibrational temperatures:    323.65   495.49   670.42  1131.56  1390.81
          (Kelvin)           1972.23  2414.51  5436.62

 Zero-point correction=                           0.021907 (Hartree/Particle)
 Thermal correction to Energy=                    0.026015
 Thermal correction to Enthalpy=                  0.026959
 Thermal correction to Gibbs Free Energy=        -0.004215
 Sum of electronic and zero-point Energies=           -280.424713
 Sum of electronic and thermal Energies=              -280.420604
 Sum of electronic and thermal Enthalpies=            -280.419660
 Sum of electronic and thermal Free Energies=         -280.450835

                     E (Thermal)             CV                S
                      KCal/Mol        Cal/Mol-Kelvin    Cal/Mol-Kelvin
 Total                   16.325             11.922             65.612
 Electronic               0.000              0.000              0.000
 Translational            0.889              2.981             38.341
 Rotational               0.889              2.981             23.061
 Vibrational             14.547              5.960              4.211
 Vibration     1          0.650              1.803              1.919
 Vibration     2          0.723              1.587              1.192
 Vibration     3          0.823              1.326              0.749

                       ! Non-Optimized Parameters !

 1\1\GINC-N2124\Freq\RMP2-FC\Aug-CC-pVTZ\H1N1O3\CGAVINH\21-Feb-2022\1\\
 #p freq mp2/aug-cc-pvtz density=current\\title\\0,1\H\O,1,r1\O,2,r2,1,
 a1\N,3,r3,2,a2,1,d1,0\O,4,r4,3,a3,2,d2,0\\r1=0.96897556\r2=1.45491931\
 r3=1.45878406\r4=1.17072885\a1=97.59494903\a2=100.67111923\a3=109.0695
 5123\d1=180.\d2=180.\\Version=ES64L-G16RevB.01\State=1-A'\HF=-279.5014
 133\MP2=-280.4466194\RMSD=3.778e-09\RMSF=1.649e-03\ZeroPoint=0.0219069
 \Thermal=0.0260152\Dipole=-0.1462273,0.,-0.5530509\DipoleDeriv=0.26833
 42,0.,0.0502956,0.,0.3554585,0.,0.0780485,0.,0.2715613,-0.3161251,0.,-

 Normal termination of Gaussian 16 at Mon Feb 21 20:50:59 2022.
