 Gaussian 16, Revision B.01,
 Gaussian 16:  ES64L-G16RevB.01 20-Dec-2017

 ---------------------------------------
 #p freq mp2/aug-cc-pvtz density=current
 ---------------------------------------

 -----
 title
 -----
 Symbolic Z-matrix:
 Charge =  0 Multiplicity = 1

                         Standard orientation:
 ---------------------------------------------------------------------
 Center     Atomic      Atomic             Coordinates (Angstroms)
 Number     Number       Type             X           Y           Z
 ---------------------------------------------------------------------
      1          1           0       -2.239196    0.423789    0.161559
      2          8           0       -1.599330   -0.282327   -0.014184
      3          8           0       -0.400183    0.541576   -0.018780
      4          7           0        0.662964   -0.456965    0.007368
      5          8           0        1.699319    0.087622    0.006323
 ---------------------------------------------------------------------

 SCF Done:  E(RHF) =  -279.501803326     A.U. after   16 cycles
 E2 =    -0.9450881073D+00 EUMP2 =    -0.28044689143291D+03
 E2 =    -0.9450881073D+00 EUMP2 =    -0.28044689143291D+03

 The electronic state is 1-A.
 Alpha  occ. eigenvalues --  -20.69104 -20.68426 -20.66013 -15.81271  -1.62403
 Alpha  occ. eigenvalues --   -1.49583  -1.25444  -0.94809  -0.77252  -0.75947
 Alpha  occ. eigenvalues --   -0.71285  -0.67881  -0.61990  -0.58883  -0.48691
 Alpha  occ. eigenvalues --   -0.47172
 Alpha virt. eigenvalues --    0.02958   0.07165   0.08593   0.10175   0.13242
 Alpha virt. eigenvalues --    0.13500   0.14390   0.15445   0.17812   0.19410
 Alpha virt. eigenvalues --    0.19925   0.20662   0.22080   0.23536   0.23726

 Mulliken charges:
               1
     1  H    0.250080
     2  O   -0.201702
     3  O   -0.147024
     4  N    0.292010
     5  O   -0.193364
 Sum of Mulliken charges =  -0.00000

 Dipole moment (field-independent basis, Debye):
    X=             -1.2024    Y=              0.7704    Z=              0.3065  Tot=              1.4605
 Quadrupole moment (field-independent basis, Debye-Ang):
   XX=            -18.0879   YY=            -23.1219   ZZ=            -21.9358
   XY=             -2.7234   XZ=             -0.8068   YZ=              0.2457

  Exact polarizability:  41.690  -0.952  22.506  -0.159   0.031  17.967
 Approx polarizability:  31.926   1.155  20.551  -0.138   0.115  15.575

 ******    1 imaginary frequencies (negative Signs) ******

                      1                      2                      3
                      A                      A                      A
 Frequencies --   -258.2534               228.0888               343.1911
 Red. masses --      1.1416                10.6231                 8.6512
 Frc consts  --      0.0449                 0.3256                 0.6003
 IR Inten    --    125.6530                 0.8650                 4.9448

                      4                      5                      6
                      A                      A                      A
 Frequencies --    452.9726               786.0813               966.1140
 Red. masses --     12.1535                12.9525                15.3307
 Frc consts  --      1.4693                 4.7156                 8.4308
 IR Inten    --    196.1796               169.4108                24.1737

                      7                      8                      9
                      A                      A                      A
 Frequencies --   1371.8478              1677.2344              3778.0837
 Red. masses --      1.1315                13.2667                 1.0676
 Frc consts  --      1.2546                21.9888                 8.9783
 IR Inten    --    149.9744               141.1556                81.5927

 - Thermochemistry -
 -------------------
 Temperature   298.150 Kelvin.  Pressure   1.00000 Atm.
 Atom     1 has atomic number  1 and mass   1.00783

 Molecular mass:    62.99564 amu.
 Principal axes and moments of inertia in atomic units:
                           1         2         3
     Eigenvalues --    32.91189 360.09647 392.76362
           X            0.99994  -0.01038  -0.00369
           Y            0.01041   0.99991   0.00792
           Z            0.00361  -0.00796   0.99996
 This molecule is an asymmetric top.
 Rotational symmetry number  1.
 Rotational temperatures (Kelvin)      2.63169     0.24053     0.22052
 Rotational constants (GHZ):          54.83554     5.01183     4.59498
    1 imaginary frequencies ignored.
 Zero-point vibrational energy      57442.4 (Joules/Mol)
                                   13.72905 (Kcal/Mol)
 Warning -- explicit consideration of   3 degrees of freedom as
           vibrations may cause significant error
 Vibrational temperatures:    328.17   493.78   651.73  1131.00  1390.02
          (Kelvin)           1973.78  2413.17  5435.82

 Zero-point correction=                           0.021879 (Hartree/Particle)
 Thermal correction to Energy=                    0.025995
 Thermal correction to Enthalpy=                  0.026939
 Thermal correction to Gibbs Free Energy=        -0.004244
 Sum of electronic and zero-point Energies=           -280.425013
 Sum of electronic and thermal Energies=              -280.420897
 Sum of electronic and thermal Enthalpies=            -280.419953
 Sum of electronic and thermal Free Energies=         -280.451135

                     E (Thermal)             CV                S
                      KCal/Mol        Cal/Mol-Kelvin    Cal/Mol-Kelvin
 Total                   16.312             11.949             65.629
 Electronic               0.000              0.000              0.000
 Translational            0.889              2.981             38.341
 Rotational               0.889              2.981             23.058
 Vibrational             14.534              5.988              4.230
 Vibration     1          0.651              1.798              1.894
 Vibration     2          0.722              1.589              1.197
 Vibration     3          0.812              1.354              0.787

                       ! Non-Optimized Parameters !

 1\1\GINC-N2127\Freq\RMP2-FC\Aug-CC-pVTZ\H1N1O3\CGAVINH\21-Feb-2022\1\\
 #p freq mp2/aug-cc-pvtz density=current\\title\\0,1\H\O,1,r1\O,2,r2,1,
 a1\N,3,r3,2,a2,1,d1,0\O,4,r4,3,a3,2,d2,0\\r1=0.96897556\r2=1.45491931\
 r3=1.45878406\r4=1.17072885\a1=97.59494903\a2=102.29752444\a3=109.0695
 5123\d1=168.39073422\d2=180.\\Version=ES64L-G16RevB.01\State=1-A\HF=-2
 79.5018033\MP2=-280.4468914\RMSD=5.092e-09\RMSF=5.415e-04\ZeroPoint=0.
 0218786\Thermal=0.0259946\Dipole=-0.1465457,0.0233839,-0.5551306\Dipol
 eDeriv=0.2656117,-0.0017578,0.0479809,-0.0019908,0.3541838,-0.0018831,

 Normal termination of Gaussian 16 at Mon Feb 21 21:09:30 2022.
