 Gaussian 16, Revision B.01,
 Gaussian 16:  ES64L-G16RevB.01 20-Dec-2017

 ---------------------------------------
 #p freq mp2/aug-cc-pvtz density=current
 ---------------------------------------

 -----
 title
 -----
 Symbolic Z-matrix:
 Charge =  0 Multiplicity = 1

                         Standard orientation:
 ---------------------------------------------------------------------
 Center     Atomic      Atomic             Coordinates (Angstroms)
 Number     Number       Type             X           Y           Z
 ---------------------------------------------------------------------
      1          1           0        1.562635    1.671487    0.000000
      2          8           0        1.454604    0.708552    0.000000
      3          8           0        0.000000    0.678242    0.000000
      4          7           0       -0.262748   -0.756685   -0.000000
      5          8           0       -1.420028   -0.933631   -0.000000
 ---------------------------------------------------------------------

 SCF Done:  E(RHF) =  -279.501600496     A.U. after   14 cycles
 E2 =    -0.9451119191D+00 EUMP2 =    -0.28044671241532D+03
 E2 =    -0.9451119191D+00 EUMP2 =    -0.28044671241532D+03

 The electronic state is 1-A'.
 Alpha  occ. eigenvalues --  -20.69107 -20.68413 -20.65974 -15.81261  -1.62406
 Alpha  occ. eigenvalues --   -1.49595  -1.25406  -0.94821  -0.77335  -0.75888
 Alpha  occ. eigenvalues --   -0.71190  -0.67824  -0.62026  -0.58997  -0.48528
 Alpha  occ. eigenvalues --   -0.47265
 Alpha virt. eigenvalues --    0.02962   0.07176   0.08593   0.10152   0.13402
 Alpha virt. eigenvalues --    0.13404   0.14417   0.15476   0.17823   0.19409
 Alpha virt. eigenvalues --    0.19974   0.20641   0.22092   0.23549   0.23744

 Mulliken charges:
               1
     1  H    0.249223
     2  O   -0.200002
     3  O   -0.148298
     4  N    0.292985
     5  O   -0.193908
 Sum of Mulliken charges =  -0.00000

 Dipole moment (field-independent basis, Debye):
    X=              0.5264    Y=              1.3547    Z=              0.0000  Tot=              1.4534
 Quadrupole moment (field-independent basis, Debye-Ang):
   XX=            -22.3927   YY=            -18.6896   ZZ=            -22.0089
   XY=              3.2788   XZ=             -0.0000   YZ=              0.0000

  Exact polarizability:  34.006   9.374  30.114   0.000  -0.000  17.919
 Approx polarizability:  29.013   5.015  23.478   0.000   0.000  15.519

 ******    1 imaginary frequencies (negative Signs) ******

                      1                      2                      3
                     A"                     A"                     A'
 Frequencies --   -264.2390               227.2832               342.9841
 Red. masses --      1.1382                10.4832                 8.5522
 Frc consts  --      0.0468                 0.3191                 0.5928
 IR Inten    --    124.8304                 0.7664                 7.9401

                      4                      5                      6
                     A'                     A'                     A'
 Frequencies --    457.7776               785.8633               967.0060
 Red. masses --     12.4987                13.0007                15.4515
 Frc consts  --      1.5432                 4.7305                 8.5129
 IR Inten    --    196.6407               169.9136                21.9091

                      7                      8                      9
                     A'                     A'                     A'
 Frequencies --   1371.0386              1677.7214              3778.6830
 Red. masses --      1.1323                13.1897                 1.0675
 Frc consts  --      1.2540                21.8739                 8.9806
 IR Inten    --    152.1154               140.7205                81.1555

 - Thermochemistry -
 -------------------
 Temperature   298.150 Kelvin.  Pressure   1.00000 Atm.
 Atom     1 has atomic number  1 and mass   1.00783

 Molecular mass:    62.99564 amu.
 Principal axes and moments of inertia in atomic units:
                           1         2         3
     Eigenvalues --    33.21853 358.19134 391.40987
           X            0.81323  -0.58194   0.00000
           Y            0.58194   0.81323   0.00000
           Z            0.00000  -0.00000   1.00000
 This molecule is an asymmetric top.
 Rotational symmetry number  1.
 Rotational temperatures (Kelvin)      2.60740     0.24181     0.22129
 Rotational constants (GHZ):          54.32935     5.03848     4.61087
    1 imaginary frequencies ignored.
 Zero-point vibrational energy      57470.7 (Joules/Mol)
                                   13.73584 (Kcal/Mol)
 Warning -- explicit consideration of   3 degrees of freedom as
           vibrations may cause significant error
 Vibrational temperatures:    327.01   493.48   658.64  1130.68  1391.31
          (Kelvin)           1972.62  2413.87  5436.68

 Zero-point correction=                           0.021889 (Hartree/Particle)
 Thermal correction to Energy=                    0.026003
 Thermal correction to Enthalpy=                  0.026947
 Thermal correction to Gibbs Free Energy=        -0.004232
 Sum of electronic and zero-point Energies=           -280.424823
 Sum of electronic and thermal Energies=              -280.420710
 Sum of electronic and thermal Enthalpies=            -280.419766
 Sum of electronic and thermal Free Energies=         -280.450945

                     E (Thermal)             CV                S
                      KCal/Mol        Cal/Mol-Kelvin    Cal/Mol-Kelvin
 Total                   16.317             11.940             65.622
 Electronic               0.000              0.000              0.000
 Translational            0.889              2.981             38.341
 Rotational               0.889              2.981             23.059
 Vibrational             14.539              5.978              4.223
 Vibration     1          0.651              1.799              1.900
 Vibration     2          0.722              1.590              1.198
 Vibration     3          0.816              1.344              0.773

                       ! Non-Optimized Parameters !

 1\1\GINC-N2108\Freq\RMP2-FC\Aug-CC-pVTZ\H1N1O3\CGAVINH\21-Feb-2022\1\\
 #p freq mp2/aug-cc-pvtz density=current\\title\\0,1\H\O,1,r1\O,2,r2,1,
 a1\N,3,r3,2,a2,1,d1,0\O,4,r4,3,a3,2,d2,0\\r1=0.96897556\r2=1.45491931\
 r3=1.45878406\r4=1.17072885\a1=97.59494903\a2=101.57017392\a3=109.0695
 5123\d1=180.\d2=180.\\Version=ES64L-G16RevB.01\State=1-A'\HF=-279.5016
 005\MP2=-280.4467124\RMSD=3.784e-09\RMSF=7.183e-04\ZeroPoint=0.0218894
 \Thermal=0.0260027\Dipole=-0.1463783,0.,-0.5527573\DipoleDeriv=0.26726
 65,0.,0.049191,0.,0.3555102,0.,0.0803258,0.,0.27384,-0.3227149,0.,-0.2

 Normal termination of Gaussian 16 at Mon Feb 21 20:50:19 2022.
