 Gaussian 16, Revision B.01,
 Gaussian 16:  ES64L-G16RevB.01 20-Dec-2017

 ---------------------------------------
 #p freq mp2/aug-cc-pvtz density=current
 ---------------------------------------

 -----
 title
 -----
 Symbolic Z-matrix:
 Charge =  0 Multiplicity = 1

                         Standard orientation:
 ---------------------------------------------------------------------
 Center     Atomic      Atomic             Coordinates (Angstroms)
 Number     Number       Type             X           Y           Z
 ---------------------------------------------------------------------
      1          1           0        1.547966    1.676537    0.000000
      2          8           0        1.454061    0.723334    0.000000
      3          8           0        0.000000    0.673356    0.000000
      4          7           0       -0.261559   -0.761788   -0.000000
      5          8           0       -1.418692   -0.939693   -0.000000
 ---------------------------------------------------------------------

 SCF Done:  E(RHF) =  -279.502103227     A.U. after   14 cycles
 E2 =    -0.9445147113D+00 EUMP2 =    -0.28044661793832D+03
 E2 =    -0.9445147113D+00 EUMP2 =    -0.28044661793832D+03

 The electronic state is 1-A'.
 Alpha  occ. eigenvalues --  -20.69119 -20.68451 -20.65910 -15.81307  -1.62429
 Alpha  occ. eigenvalues --   -1.49715  -1.25662  -0.94833  -0.77374  -0.76007
 Alpha  occ. eigenvalues --   -0.71206  -0.68106  -0.62079  -0.58996  -0.48561
 Alpha  occ. eigenvalues --   -0.47281
 Alpha virt. eigenvalues --    0.02984   0.07150   0.08589   0.10169   0.13387
 Alpha virt. eigenvalues --    0.13393   0.14453   0.15496   0.17809   0.19414
 Alpha virt. eigenvalues --    0.19977   0.20637   0.22078   0.23511   0.23727

 Mulliken charges:
               1
     1  H    0.240697
     2  O   -0.192048
     3  O   -0.147880
     4  N    0.292498
     5  O   -0.193267
 Sum of Mulliken charges =  -0.00000

 Dipole moment (field-independent basis, Debye):
    X=              0.5023    Y=              1.3465    Z=              0.0000  Tot=              1.4371
 Quadrupole moment (field-independent basis, Debye-Ang):
   XX=            -22.4640   YY=            -18.6589   ZZ=            -21.9962
   XY=              3.2339   XZ=              0.0000   YZ=             -0.0000

  Exact polarizability:  33.950   9.420  30.099   0.000   0.000  17.900
 Approx polarizability:  28.977   5.091  23.406   0.000   0.000  15.504

 ******    1 imaginary frequencies (negative Signs) ******

                      1                      2                      3
                     A"                     A"                     A'
 Frequencies --   -486.2396               228.2580               329.6581
 Red. masses --      1.1215                12.1332                 8.1023
 Frc consts  --      0.1562                 0.3725                 0.5188
 IR Inten    --    126.6085                 0.1258                 5.5188

                      4                      5                      6
                     A'                     A'                     A'
 Frequencies --    451.8423               780.8917               966.4763
 Red. masses --     12.3028                12.3419                15.6152
 Frc consts  --      1.4799                 4.4342                 8.5937
 IR Inten    --    198.9857               162.0849                25.3793

                      7                      8                      9
                     A'                     A'                     A'
 Frequencies --   1333.2068              1677.1036              3925.5740
 Red. masses --      1.1444                13.4473                 1.0675
 Frc consts  --      1.1984                22.2846                 9.6924
 IR Inten    --    155.0059               142.5475                83.9021

 - Thermochemistry -
 -------------------
 Temperature   298.150 Kelvin.  Pressure   1.00000 Atm.
 Atom     1 has atomic number  1 and mass   1.00783

 Molecular mass:    62.99564 amu.
 Principal axes and moments of inertia in atomic units:
                           1         2         3
     Eigenvalues --    32.81253 360.02546 392.83799
           X            0.81027  -0.58606   0.00000
           Y            0.58606   0.81027   0.00000
           Z            0.00000  -0.00000   1.00000
 This molecule is an asymmetric top.
 Rotational symmetry number  1.
 Rotational temperatures (Kelvin)      2.63966     0.24058     0.22048
 Rotational constants (GHZ):          55.00158     5.01282     4.59411
    1 imaginary frequencies ignored.
 Zero-point vibrational energy      57977.1 (Joules/Mol)
                                   13.85685 (Kcal/Mol)
 Warning -- explicit consideration of   3 degrees of freedom as
           vibrations may cause significant error
 Vibrational temperatures:    328.41   474.30   650.10  1123.53  1390.54
          (Kelvin)           1918.19  2412.98  5648.03

 Zero-point correction=                           0.022082 (Hartree/Particle)
 Thermal correction to Energy=                    0.026217
 Thermal correction to Enthalpy=                  0.027162
 Thermal correction to Gibbs Free Energy=        -0.004055
 Sum of electronic and zero-point Energies=           -280.424536
 Sum of electronic and thermal Energies=              -280.420401
 Sum of electronic and thermal Enthalpies=            -280.419456
 Sum of electronic and thermal Free Energies=         -280.450673

                     E (Thermal)             CV                S
                      KCal/Mol        Cal/Mol-Kelvin    Cal/Mol-Kelvin
 Total                   16.452             12.003             65.700
 Electronic               0.000              0.000              0.000
 Translational            0.889              2.981             38.341
 Rotational               0.889              2.981             23.055
 Vibrational             14.674              6.042              4.304
 Vibration     1          0.651              1.798              1.893
 Vibration     2          0.712              1.616              1.262
 Vibration     3          0.811              1.357              0.790

                       ! Non-Optimized Parameters !

 1\1\GINC-N2124\Freq\RMP2-FC\Aug-CC-pVTZ\H1N1O3\CGAVINH\21-Feb-2022\1\\
 #p freq mp2/aug-cc-pvtz density=current\\title\\0,1\H\O,1,r1\O,2,r2,1,
 a1\N,3,r3,2,a2,1,d1,0\O,4,r4,3,a3,2,d2,0\\r1=0.95781707\r2=1.45491931\
 r3=1.45878406\r4=1.17072885\a1=97.59494903\a2=102.29752444\a3=109.0695
 5123\d1=180.\d2=180.\\Version=ES64L-G16RevB.01\State=1-A'\HF=-279.5021
 032\MP2=-280.4466179\RMSD=3.788e-09\RMSF=4.107e-03\ZeroPoint=0.0220823
 \Thermal=0.0262174\Dipole=-0.1447336,0.,-0.5465721\DipoleDeriv=0.26497
 69,0.,0.0485949,0.,0.3571191,0.,0.0843355,0.,0.2770948,-0.3280956,0.,-

 Normal termination of Gaussian 16 at Mon Feb 21 20:06:52 2022.
