 Gaussian 16, Revision B.01,
 Gaussian 16:  ES64L-G16RevB.01 20-Dec-2017

 ---------------------------------------
 #p freq mp2/aug-cc-pvtz density=current
 ---------------------------------------

 -----
 title
 -----
 Symbolic Z-matrix:
 Charge =  0 Multiplicity = 1

                         Standard orientation:
 ---------------------------------------------------------------------
 Center     Atomic      Atomic             Coordinates (Angstroms)
 Number     Number       Type             X           Y           Z
 ---------------------------------------------------------------------
      1          1           0        1.546196    1.702416   -0.000000
      2          8           0        1.453914    0.737845   -0.000000
      3          8           0        0.000000    0.683770   -0.000000
      4          7           0       -0.261633   -0.775068    0.000000
      5          8           0       -1.418260   -0.956233    0.000000
 ---------------------------------------------------------------------

 SCF Done:  E(RHF) =  -279.499304201     A.U. after   14 cycles
 E2 =    -0.9473191839D+00 EUMP2 =    -0.28044662338497D+03
 E2 =    -0.9473191839D+00 EUMP2 =    -0.28044662338497D+03

 The electronic state is 1-A'.
 Alpha  occ. eigenvalues --  -20.68980 -20.68694 -20.65712 -15.81660  -1.62323
 Alpha  occ. eigenvalues --   -1.49233  -1.24745  -0.94995  -0.77096  -0.75659
 Alpha  occ. eigenvalues --   -0.70805  -0.68055  -0.62157  -0.58815  -0.48273
 Alpha  occ. eigenvalues --   -0.47135
 Alpha virt. eigenvalues --    0.03027   0.06867   0.08549   0.10144   0.13382
 Alpha virt. eigenvalues --    0.13411   0.14457   0.15499   0.17877   0.19405
 Alpha virt. eigenvalues --    0.19969   0.20291   0.22142   0.23642   0.23712

 Mulliken charges:
               1
     1  H    0.250030
     2  O   -0.203190
     3  O   -0.162205
     4  N    0.298445
     5  O   -0.183081
 Sum of Mulliken charges =  -0.00000

 Dipole moment (field-independent basis, Debye):
    X=              0.4030    Y=              1.2251    Z=             -0.0000  Tot=              1.2897
 Quadrupole moment (field-independent basis, Debye-Ang):
   XX=            -22.4293   YY=            -18.5158   ZZ=            -22.0436
   XY=              3.2999   XZ=              0.0000   YZ=              0.0000

  Exact polarizability:  33.990   9.603  30.740  -0.000  -0.000  18.008
 Approx polarizability:  29.120   5.267  24.061  -0.000  -0.000  15.558

 ******    1 imaginary frequencies (negative Signs) ******

                      1                      2                      3
                     A"                     A"                     A'
 Frequencies --   -275.5493               238.4615               333.2226
 Red. masses --      1.1339                10.8181                 8.5293
 Frc consts  --      0.0507                 0.3624                 0.5580
 IR Inten    --    125.2717                 0.6786                 9.8914

                      4                      5                      6
                     A'                     A'                     A'
 Frequencies --    407.6070               771.9125               963.5387
 Red. masses --     12.4806                13.1284                15.5066
 Frc consts  --      1.2217                 4.6089                 8.4821
 IR Inten    --    213.2614               154.5221                20.3395

                      7                      8                      9
                     A'                     A'                     A'
 Frequencies --   1366.9070              1667.1411              3778.1657
 Red. masses --      1.1303                13.3085                 1.0676
 Frc consts  --      1.2443                21.7933                 8.9785
 IR Inten    --    148.8608               152.1450                82.8849

 - Thermochemistry -
 -------------------
 Temperature   298.150 Kelvin.  Pressure   1.00000 Atm.
 Atom     1 has atomic number  1 and mass   1.00783

 Molecular mass:    62.99564 amu.
 Principal axes and moments of inertia in atomic units:
                           1         2         3
     Eigenvalues --    33.43263 364.43352 397.86615
           X            0.80425  -0.59430   0.00000
           Y            0.59430   0.80425   0.00000
           Z           -0.00000   0.00000   1.00000
 This molecule is an asymmetric top.
 Rotational symmetry number  1.
 Rotational temperatures (Kelvin)      2.59070     0.23767     0.21770
 Rotational constants (GHZ):          53.98143     4.95218     4.53605
    1 imaginary frequencies ignored.
 Zero-point vibrational energy      56983.9 (Joules/Mol)
                                   13.61947 (Kcal/Mol)
 Warning -- explicit consideration of   3 degrees of freedom as
           vibrations may cause significant error
 Vibrational temperatures:    343.09   479.43   586.46  1110.61  1386.32
          (Kelvin)           1966.67  2398.64  5435.94

 Zero-point correction=                           0.021704 (Hartree/Particle)
 Thermal correction to Energy=                    0.025862
 Thermal correction to Enthalpy=                  0.026806
 Thermal correction to Gibbs Free Energy=        -0.004457
 Sum of electronic and zero-point Energies=           -280.424919
 Sum of electronic and thermal Energies=              -280.420761
 Sum of electronic and thermal Enthalpies=            -280.419817
 Sum of electronic and thermal Free Energies=         -280.451080

                     E (Thermal)             CV                S
                      KCal/Mol        Cal/Mol-Kelvin    Cal/Mol-Kelvin
 Total                   16.229             12.083             65.799
 Electronic               0.000              0.000              0.000
 Translational            0.889              2.981             38.341
 Rotational               0.889              2.981             23.098
 Vibrational             14.451              6.121              4.360
 Vibration     1          0.656              1.782              1.814
 Vibration     2          0.715              1.609              1.244
 Vibration     3          0.772              1.454              0.935

                       ! Non-Optimized Parameters !

 1\1\GINC-N2124\Freq\RMP2-FC\Aug-CC-pVTZ\H1N1O3\CGAVINH\21-Feb-2022\1\\
 #p freq mp2/aug-cc-pvtz density=current\\title\\0,1\H\O,1,r1\O,2,r2,1,
 a1\N,3,r3,2,a2,1,d1,0\O,4,r4,3,a3,2,d2,0\\r1=0.96897556\r2=1.45491931\
 r3=1.48211399\r4=1.17072885\a1=97.59494903\a2=102.29752444\a3=109.0695
 5123\d1=180.\d2=180.\\Version=ES64L-G16RevB.01\State=1-A'\HF=-279.4993
 042\MP2=-280.4466234\RMSD=4.137e-09\RMSF=2.356e-03\ZeroPoint=0.021704\
 Thermal=0.025862\Dipole=-0.111936,0.,-0.4948905\DipoleDeriv=0.2643344,
 0.,0.0460777,0.,0.354861,0.,0.0821217,0.,0.2756506,-0.332503,0.,-0.205

 Normal termination of Gaussian 16 at Mon Feb 21 20:20:07 2022.
