 Gaussian 16, Revision B.01,
 Gaussian 16:  ES64L-G16RevB.01 20-Dec-2017

 ---------------------------------------
 #p freq mp2/aug-cc-pvtz density=current
 ---------------------------------------

 -----
 title
 -----
 Symbolic Z-matrix:
 Charge =  0 Multiplicity = 1

                         Standard orientation:
 ---------------------------------------------------------------------
 Center     Atomic      Atomic             Coordinates (Angstroms)
 Number     Number       Type             X           Y           Z
 ---------------------------------------------------------------------
      1          1           0        2.235061    0.419069    0.192805
      2          8           0        1.599536   -0.281661   -0.016957
      3          8           0        0.400112    0.541836   -0.022268
      4          7           0       -0.662665   -0.456962    0.008673
      5          8           0       -1.699199    0.087283    0.007536
 ---------------------------------------------------------------------

 SCF Done:  E(RHF) =  -279.501851496     A.U. after   16 cycles
 E2 =    -0.9451053795D+00 EUMP2 =    -0.28044695687510D+03
 E2 =    -0.9451053795D+00 EUMP2 =    -0.28044695687510D+03

 The electronic state is 1-A.
 Alpha  occ. eigenvalues --  -20.69111 -20.68425 -20.66019 -15.81265  -1.62403
 Alpha  occ. eigenvalues --   -1.49587  -1.25445  -0.94810  -0.77240  -0.75959
 Alpha  occ. eigenvalues --   -0.71328  -0.67859  -0.61967  -0.58856  -0.48758
 Alpha  occ. eigenvalues --   -0.47143
 Alpha virt. eigenvalues --    0.02957   0.07163   0.08592   0.10176   0.13205
 Alpha virt. eigenvalues --    0.13516   0.14383   0.15442   0.17806   0.19406
 Alpha virt. eigenvalues --    0.19904   0.20672   0.22079   0.23533   0.23721

 Mulliken charges:
               1
     1  H    0.250060
     2  O   -0.201812
     3  O   -0.146966
     4  N    0.292129
     5  O   -0.193411
 Sum of Mulliken charges =  -0.00000

 Dipole moment (field-independent basis, Debye):
    X=              1.1957    Y=              0.7613    Z=              0.3656  Tot=              1.4639
 Quadrupole moment (field-independent basis, Debye-Ang):
   XX=            -18.1288   YY=            -23.1341   ZZ=            -21.9041
   XY=              2.6931   XZ=              0.9605   YZ=              0.2902

  Exact polarizability:  41.671   0.943  22.499   0.190   0.036  17.984
 Approx polarizability:  31.917  -1.165  20.539   0.163   0.136  15.597

 ******    1 imaginary frequencies (negative Signs) ******

                      1                      2                      3
                      A                      A                      A
 Frequencies --   -253.4367               227.7100               343.9532
 Red. masses --      1.1427                10.6662                 8.6707
 Frc consts  --      0.0432                 0.3259                 0.6044
 IR Inten    --    126.0351                 0.8992                 5.0807

                      4                      5                      6
                      A                      A                      A
 Frequencies --    453.5145               786.3587               965.6272
 Red. masses --     12.0882                12.9670                15.3052
 Frc consts  --      1.4649                 4.7242                 8.4083
 IR Inten    --    194.7191               168.8245                24.8326

                      7                      8                      9
                      A                      A                      A
 Frequencies --   1372.1020              1677.1918              3777.8241
 Red. masses --      1.1307                13.2913                 1.0676
 Frc consts  --      1.2542                22.0284                 8.9772
 IR Inten    --    148.6904               141.4449                81.1926

 - Thermochemistry -
 -------------------
 Temperature   298.150 Kelvin.  Pressure   1.00000 Atm.
 Atom     1 has atomic number  1 and mass   1.00783

 Molecular mass:    62.99564 amu.
 Principal axes and moments of inertia in atomic units:
                           1         2         3
     Eigenvalues --    32.94218 360.07468 392.66900
           X            0.99994   0.01023   0.00440
           Y           -0.01027   0.99990   0.00936
           Z           -0.00430  -0.00941   0.99995
 This molecule is an asymmetric top.
 Rotational symmetry number  1.
 Rotational temperatures (Kelvin)      2.62927     0.24054     0.22058
 Rotational constants (GHZ):          54.78511     5.01213     4.59609
    1 imaginary frequencies ignored.
 Zero-point vibrational energy      57446.4 (Joules/Mol)
                                   13.73001 (Kcal/Mol)
 Warning -- explicit consideration of   3 degrees of freedom as
           vibrations may cause significant error
 Vibrational temperatures:    327.62   494.87   652.51  1131.39  1389.32
          (Kelvin)           1974.15  2413.10  5435.45

 Zero-point correction=                           0.021880 (Hartree/Particle)
 Thermal correction to Energy=                    0.025995
 Thermal correction to Enthalpy=                  0.026939
 Thermal correction to Gibbs Free Energy=        -0.004242
 Sum of electronic and zero-point Energies=           -280.425077
 Sum of electronic and thermal Energies=              -280.420962
 Sum of electronic and thermal Enthalpies=            -280.420017
 Sum of electronic and thermal Free Energies=         -280.451199

                     E (Thermal)             CV                S
                      KCal/Mol        Cal/Mol-Kelvin    Cal/Mol-Kelvin
 Total                   16.312             11.947             65.627
 Electronic               0.000              0.000              0.000
 Translational            0.889              2.981             38.341
 Rotational               0.889              2.981             23.059
 Vibrational             14.535              5.985              4.228
 Vibration     1          0.651              1.799              1.897
 Vibration     2          0.723              1.588              1.194
 Vibration     3          0.812              1.353              0.785

                       ! Non-Optimized Parameters !

 1\1\GINC-N2129\Freq\RMP2-FC\Aug-CC-pVTZ\H1N1O3\CGAVINH\21-Feb-2022\1\\
 #p freq mp2/aug-cc-pvtz density=current\\title\\0,1\H\O,1,r1\O,2,r2,1,
 a1\N,3,r3,2,a2,1,d1,0\O,4,r4,3,a3,2,d2,0\\r1=0.96897556\r2=1.45491931\
 r3=1.45878406\r4=1.17072885\a1=97.59494903\a2=102.29752444\a3=109.0695
 5123\d1=193.87572659\d2=180.\\Version=ES64L-G16RevB.01\State=1-A\HF=-2
 79.5018515\MP2=-280.4469569\RMSD=4.983e-09\RMSF=6.555e-04\ZeroPoint=0.
 0218802\Thermal=0.0259953\Dipole=-0.1465676,-0.0277713,-0.5562788\Dipo
 leDeriv=0.2652927,0.0021005,0.047856,0.0023423,0.3536195,0.0021466,0.0

 Normal termination of Gaussian 16 at Mon Feb 21 21:04:56 2022.
