 Gaussian 16, Revision B.01,
 Gaussian 16:  ES64L-G16RevB.01 20-Dec-2017

 ---------------------------------------
 #p freq mp2/aug-cc-pvtz density=current
 ---------------------------------------

 -----
 title
 -----
 Symbolic Z-matrix:
 Charge =  0 Multiplicity = 1

                         Standard orientation:
 ---------------------------------------------------------------------
 Center     Atomic      Atomic             Coordinates (Angstroms)
 Number     Number       Type             X           Y           Z
 ---------------------------------------------------------------------
      1          1           0        1.505104    1.693276    0.000000
      2          8           0        1.453963    0.725651    0.000000
      3          8           0        0.000000    0.672910    0.000000
      4          7           0       -0.258831   -0.762729    0.000000
      5          8           0       -1.415624   -0.942833    0.000000
 ---------------------------------------------------------------------

 SCF Done:  E(RHF) =  -279.501114311     A.U. after   14 cycles
 E2 =    -0.9454184573D+00 EUMP2 =    -0.28044653276811D+03
 E2 =    -0.9454184573D+00 EUMP2 =    -0.28044653276811D+03

 The electronic state is 1-A'.
 Alpha  occ. eigenvalues --  -20.69062 -20.68427 -20.66091 -15.81279  -1.62416
 Alpha  occ. eigenvalues --   -1.49732  -1.25402  -0.94822  -0.77408  -0.75757
 Alpha  occ. eigenvalues --   -0.71209  -0.67864  -0.62090  -0.59171  -0.48554
 Alpha  occ. eigenvalues --   -0.47254
 Alpha virt. eigenvalues --    0.02991   0.07156   0.08592   0.10162   0.13382
 Alpha virt. eigenvalues --    0.13409   0.14414   0.15467   0.17818   0.19391
 Alpha virt. eigenvalues --    0.19958   0.20641   0.22067   0.23529   0.23735

 Mulliken charges:
               1
     1  H    0.253889
     2  O   -0.201987
     3  O   -0.149177
     4  N    0.290740
     5  O   -0.193465
 Sum of Mulliken charges =  -0.00000

 Dipole moment (field-independent basis, Debye):
    X=              0.4501    Y=              1.3552    Z=             -0.0000  Tot=              1.4280
 Quadrupole moment (field-independent basis, Debye-Ang):
   XX=            -22.6751   YY=            -18.5934   ZZ=            -22.0061
   XY=              3.1059   XZ=             -0.0000   YZ=              0.0000

  Exact polarizability:  33.864   9.391  30.250   0.000  -0.000  17.905
 Approx polarizability:  28.994   5.041  23.545  -0.000  -0.000  15.509

 ******    1 imaginary frequencies (negative Signs) ******

                      1                      2                      3
                     A"                     A"                     A'
 Frequencies --   -254.0949               225.2793               337.0346
 Red. masses --      1.1120                13.7719                 8.7423
 Frc consts  --      0.0423                 0.4118                 0.5851
 IR Inten    --    123.1213                 0.0436                 5.6847

                      4                      5                      6
                     A'                     A'                     A'
 Frequencies --    453.3059               787.5678               970.5193
 Red. masses --     12.5510                12.9148                15.8206
 Frc consts  --      1.5195                 4.7197                 8.7797
 IR Inten    --    197.4939               169.0678                24.4365

                      7                      8                      9
                     A'                     A'                     A'
 Frequencies --   1386.3992              1677.9041              3777.8196
 Red. masses --      1.1290                12.8927                 1.0669
 Frc consts  --      1.2786                21.3859                 8.9709
 IR Inten    --    163.2021               136.5388                79.6332

 - Thermochemistry -
 -------------------
 Temperature   298.150 Kelvin.  Pressure   1.00000 Atm.
 Atom     1 has atomic number  1 and mass   1.00783

 Molecular mass:    62.99564 amu.
 Principal axes and moments of inertia in atomic units:
                           1         2         3
     Eigenvalues --    32.93427 359.62277 392.55703
           X            0.80871  -0.58821   0.00000
           Y            0.58821   0.80871   0.00000
           Z            0.00000   0.00000   1.00000
 This molecule is an asymmetric top.
 Rotational symmetry number  1.
 Rotational temperatures (Kelvin)      2.62990     0.24085     0.22064
 Rotational constants (GHZ):          54.79828     5.01843     4.59740
    1 imaginary frequencies ignored.
 Zero-point vibrational energy      57515.4 (Joules/Mol)
                                   13.74652 (Kcal/Mol)
 Warning -- explicit consideration of   3 degrees of freedom as
           vibrations may cause significant error
 Vibrational temperatures:    324.13   484.92   652.21  1133.13  1396.36
          (Kelvin)           1994.72  2414.13  5435.44

 Zero-point correction=                           0.021906 (Hartree/Particle)
 Thermal correction to Energy=                    0.026032
 Thermal correction to Enthalpy=                  0.026976
 Thermal correction to Gibbs Free Energy=        -0.004228
 Sum of electronic and zero-point Energies=           -280.424626
 Sum of electronic and thermal Energies=              -280.420501
 Sum of electronic and thermal Enthalpies=            -280.419557
 Sum of electronic and thermal Free Energies=         -280.450760

                     E (Thermal)             CV                S
                      KCal/Mol        Cal/Mol-Kelvin    Cal/Mol-Kelvin
 Total                   16.335             11.952             65.673
 Electronic               0.000              0.000              0.000
 Translational            0.889              2.981             38.341
 Rotational               0.889              2.981             23.057
 Vibrational             14.558              5.990              4.276
 Vibration     1          0.650              1.803              1.916
 Vibration     2          0.718              1.602              1.226
 Vibration     3          0.812              1.354              0.786

                       ! Non-Optimized Parameters !

 1\1\GINC-N2128\Freq\RMP2-FC\Aug-CC-pVTZ\H1N1O3\CGAVINH\21-Feb-2022\1\\
 #p freq mp2/aug-cc-pvtz density=current\\title\\0,1\H\O,1,r1\O,2,r2,1,
 a1\N,3,r3,2,a2,1,d1,0\O,4,r4,3,a3,2,d2,0\\r1=0.96897556\r2=1.45491931\
 r3=1.45878406\r4=1.17072885\a1=95.1028278\a2=102.29752444\a3=109.06955
 123\d1=180.\d2=180.\\Version=ES64L-G16RevB.01\State=1-A'\HF=-279.50111
 43\MP2=-280.4465328\RMSD=3.766e-09\RMSF=2.150e-03\ZeroPoint=0.0219065\
 Thermal=0.0260316\Dipole=-0.1486842,0.,-0.5417695\DipoleDeriv=0.276388
 3,0.,0.0572994,0.,0.3525967,0.,0.0774101,0.,0.2712771,-0.3455577,0.,-0

 Normal termination of Gaussian 16 at Mon Feb 21 20:42:58 2022.
