 Gaussian 16, Revision B.01,
 Gaussian 16:  ES64L-G16RevB.01 20-Dec-2017

 ---------------------------------------
 #p freq mp2/aug-cc-pvtz density=current
 ---------------------------------------

 -----
 title
 -----
 Symbolic Z-matrix:
 Charge =  0 Multiplicity = 1

                         Standard orientation:
 ---------------------------------------------------------------------
 Center     Atomic      Atomic             Coordinates (Angstroms)
 Number     Number       Type             X           Y           Z
 ---------------------------------------------------------------------
      1          1           0        1.550734    1.702318   -0.000000
      2          8           0        1.454067    0.722318    0.000000
      3          8           0        0.000000    0.672518   -0.000000
      4          7           0       -0.261736   -0.762593    0.000000
      5          8           0       -1.418890   -0.940357   -0.000000
 ---------------------------------------------------------------------

 SCF Done:  E(RHF) =  -279.500711904     A.U. after   14 cycles
 E2 =    -0.9458029900D+00 EUMP2 =    -0.28044651489435D+03
 E2 =    -0.9458029900D+00 EUMP2 =    -0.28044651489435D+03

 The electronic state is 1-A'.
 Alpha  occ. eigenvalues --  -20.69046 -20.68400 -20.66118 -15.81251  -1.62367
 Alpha  occ. eigenvalues --   -1.49386  -1.25138  -0.94770  -0.77156  -0.75788
 Alpha  occ. eigenvalues --   -0.71143  -0.67691  -0.61999  -0.58867  -0.48469
 Alpha  occ. eigenvalues --   -0.47207
 Alpha virt. eigenvalues --    0.02932   0.07191   0.08601   0.10176   0.13396
 Alpha virt. eigenvalues --    0.13407   0.14338   0.15396   0.17847   0.19422
 Alpha virt. eigenvalues --    0.19986   0.20636   0.22087   0.23586   0.23753

 Mulliken charges:
               1
     1  H    0.262610
     2  O   -0.213973
     3  O   -0.146091
     4  N    0.290682
     5  O   -0.193228
 Sum of Mulliken charges =  -0.00000

 Dipole moment (field-independent basis, Debye):
    X=              0.5165    Y=              1.3808    Z=             -0.0000  Tot=              1.4743
 Quadrupole moment (field-independent basis, Debye-Ang):
   XX=            -22.4761   YY=            -18.5540   ZZ=            -22.0301
   XY=              3.2871   XZ=             -0.0000   YZ=             -0.0000

  Exact polarizability:  34.075   9.546  30.475   0.000   0.000  17.966
 Approx polarizability:  29.050   5.126  23.688   0.000  -0.000  15.547

                      1                      2                      3
                     A"                     A'                     A"
 Frequencies --    223.9569               352.8790               367.8028
 Red. masses --     15.0778                 9.1792                 1.1046
 Frc consts  --      0.4456                 0.6735                 0.0880
 IR Inten    --      1.9314                 3.5423               121.8807

                      4                      5                      6
                     A'                     A'                     A'
 Frequencies --    451.3994               789.9148               967.9684
 Red. masses --     12.3326                13.4651                15.0774
 Frc consts  --      1.4806                 4.9502                 8.3234
 IR Inten    --    200.7064               180.0986                20.1592

                      7                      8                      9
                     A'                     A'                     A'
 Frequencies --   1416.8914              1677.6755              3578.7246
 Red. masses --      1.1253                12.8229                 1.0676
 Frc consts  --      1.3311                21.2643                 8.0558
 IR Inten    --    151.8316               137.3073                80.5345

 - Thermochemistry -
 -------------------
 Temperature   298.150 Kelvin.  Pressure   1.00000 Atm.
 Atom     1 has atomic number  1 and mass   1.00783

 Molecular mass:    62.99564 amu.
 Principal axes and moments of inertia in atomic units:
                           1         2         3
     Eigenvalues --    32.88043 360.31866 393.19909
           X            0.80999  -0.58644   0.00000
           Y            0.58644   0.80999   0.00000
           Z            0.00000  -0.00000   1.00000
 This molecule is an asymmetric top.
 Rotational symmetry number  1.
 Rotational temperatures (Kelvin)      2.63421     0.24038     0.22028
 Rotational constants (GHZ):          54.88801     5.00874     4.58989
 Zero-point vibrational energy      58779.8 (Joules/Mol)
                                   14.04871 (Kcal/Mol)
 Warning -- explicit consideration of   4 degrees of freedom as
           vibrations may cause significant error
 Vibrational temperatures:    322.22   507.71   529.19   649.46  1136.51
          (Kelvin)           1392.69  2038.59  2413.80  5148.99

 Zero-point correction=                           0.022388 (Hartree/Particle)
 Thermal correction to Energy=                    0.026840
 Thermal correction to Enthalpy=                  0.027784
 Thermal correction to Gibbs Free Energy=        -0.003909
 Sum of electronic and zero-point Energies=           -280.424127
 Sum of electronic and thermal Energies=              -280.419675
 Sum of electronic and thermal Enthalpies=            -280.418731
 Sum of electronic and thermal Free Energies=         -280.450424

                     E (Thermal)             CV                S
                      KCal/Mol        Cal/Mol-Kelvin    Cal/Mol-Kelvin
 Total                   16.842             13.453             66.704
 Electronic               0.000              0.000              0.000
 Translational            0.889              2.981             38.341
 Rotational               0.889              2.981             23.059
 Vibrational             15.065              7.491              5.305
 Vibration     1          0.649              1.805              1.927
 Vibration     2          0.729              1.569              1.153
 Vibration     3          0.740              1.538              1.089
 Vibration     4          0.810              1.358              0.792

                       ! Non-Optimized Parameters !

 1\1\GINC-N2129\Freq\RMP2-FC\Aug-CC-pVTZ\H1N1O3\CGAVINH\21-Feb-2022\1\\
 #p freq mp2/aug-cc-pvtz density=current\\title\\0,1\H\O,1,r1\O,2,r2,1,
 a1\N,3,r3,2,a2,1,d1,0\O,4,r4,3,a3,2,d2,0\\r1=0.98475605\r2=1.45491931\
 r3=1.45878406\r4=1.17072885\a1=97.59494903\a2=102.29752444\a3=109.0695
 5123\d1=180.\d2=180.\\Version=ES64L-G16RevB.01\State=1-A'\HF=-279.5007
 119\MP2=-280.4465149\RMSD=3.793e-09\RMSF=5.254e-03\ZeroPoint=0.022388\
 Thermal=0.0268398\Dipole=-0.1488922,0.,-0.5605832\DipoleDeriv=0.268252
 3,0.,0.0478104,0.,0.3533862,0.,0.0790469,0.,0.2732519,-0.3280074,0.,-0

 Normal termination of Gaussian 16 at Mon Feb 21 20:03:13 2022.
