 Gaussian 16, Revision B.01,
 Gaussian 16:  ES64L-G16RevB.01 20-Dec-2017

 ---------------------------------------
 #p freq mp2/aug-cc-pvtz density=current
 ---------------------------------------

 -----
 title
 -----
 Symbolic Z-matrix:
 Charge =  0 Multiplicity = 1

                         Standard orientation:
 ---------------------------------------------------------------------
 Center     Atomic      Atomic             Coordinates (Angstroms)
 Number     Number       Type             X           Y           Z
 ---------------------------------------------------------------------
      1          1           0        1.508692    1.731663    0.000000
      2          8           0        1.451042    0.764404    0.000000
      3          8           0       -0.000000    0.658253    0.000000
      4          7           0       -0.257595   -0.777608    0.000000
      5          8           0       -1.414232   -0.958708    0.000000
 ---------------------------------------------------------------------

 SCF Done:  E(RHF) =  -279.501640486     A.U. after   14 cycles
 E2 =    -0.9449158116D+00 EUMP2 =    -0.28044655629765D+03
 E2 =    -0.9449158116D+00 EUMP2 =    -0.28044655629765D+03

 The electronic state is 1-A'.
 Alpha  occ. eigenvalues --  -20.69024 -20.68476 -20.66067 -15.81347  -1.62397
 Alpha  occ. eigenvalues --   -1.49515  -1.25536  -0.94769  -0.77124  -0.75999
 Alpha  occ. eigenvalues --   -0.71149  -0.68238  -0.62099  -0.58787  -0.48504
 Alpha  occ. eigenvalues --   -0.47208
 Alpha virt. eigenvalues --    0.02963   0.07143   0.08598   0.10227   0.13371
 Alpha virt. eigenvalues --    0.13373   0.14381   0.15382   0.17834   0.19437
 Alpha virt. eigenvalues --    0.20003   0.20598   0.22062   0.23512   0.23721

 Mulliken charges:
               1
     1  H    0.252971
     2  O   -0.205681
     3  O   -0.144207
     4  N    0.288159
     5  O   -0.191242
 Sum of Mulliken charges =  -0.00000

 Dipole moment (field-independent basis, Debye):
    X=              0.4555    Y=              1.3753    Z=              0.0000  Tot=              1.4488
 Quadrupole moment (field-independent basis, Debye-Ang):
   XX=            -22.6857   YY=            -18.4075   ZZ=            -22.0143
   XY=              3.1777   XZ=             -0.0000   YZ=             -0.0000

  Exact polarizability:  33.963   9.749  30.674   0.000   0.000  17.952
 Approx polarizability:  28.976   5.366  23.663  -0.000  -0.000  15.531

 ******    1 imaginary frequencies (negative Signs) ******

                      1                      2                      3
                     A"                     A"                     A'
 Frequencies --   -282.1580               233.2697               333.6928
 Red. masses --      1.1410                10.6506                 8.9187
 Frc consts  --      0.0535                 0.3415                 0.5851
 IR Inten    --    124.4706                 0.7876                 2.1216

                      4                      5                      6
                     A'                     A'                     A'
 Frequencies --    437.1710               784.2102               967.8866
 Red. masses --     11.6155                12.6832                15.2106
 Frc consts  --      1.3080                 4.5956                 8.3955
 IR Inten    --    201.8835               173.2003                24.6796

                      7                      8                      9
                     A'                     A'                     A'
 Frequencies --   1371.7971              1676.1265              3778.6888
 Red. masses --      1.1366                13.2645                 1.0676
 Frc consts  --      1.2602                21.9560                 8.9815
 IR Inten    --    155.5540               140.0944                86.2437

 - Thermochemistry -
 -------------------
 Temperature   298.150 Kelvin.  Pressure   1.00000 Atm.
 Atom     1 has atomic number  1 and mass   1.00783

 Molecular mass:    62.99564 amu.
 Principal axes and moments of inertia in atomic units:
                           1         2         3
     Eigenvalues --    31.80061 365.57315 397.37376
           X            0.80089  -0.59882   0.00000
           Y            0.59882   0.80089   0.00000
           Z            0.00000   0.00000   1.00000
 This molecule is an asymmetric top.
 Rotational symmetry number  1.
 Rotational temperatures (Kelvin)      2.72366     0.23693     0.21797
 Rotational constants (GHZ):          56.75178     4.93674     4.54167
    1 imaginary frequencies ignored.
 Zero-point vibrational energy      57318.1 (Joules/Mol)
                                   13.69936 (Kcal/Mol)
 Warning -- explicit consideration of   3 degrees of freedom as
           vibrations may cause significant error
 Vibrational temperatures:    335.62   480.11   628.99  1128.30  1392.57
          (Kelvin)           1973.71  2411.57  5436.69

 Zero-point correction=                           0.021831 (Hartree/Particle)
 Thermal correction to Energy=                    0.025964
 Thermal correction to Enthalpy=                  0.026909
 Thermal correction to Gibbs Free Energy=        -0.004296
 Sum of electronic and zero-point Energies=           -280.424725
 Sum of electronic and thermal Energies=              -280.420592
 Sum of electronic and thermal Enthalpies=            -280.419648
 Sum of electronic and thermal Free Energies=         -280.450852

                     E (Thermal)             CV                S
                      KCal/Mol        Cal/Mol-Kelvin    Cal/Mol-Kelvin
 Total                   16.293             11.996             65.675
 Electronic               0.000              0.000              0.000
 Translational            0.889              2.981             38.341
 Rotational               0.889              2.981             23.051
 Vibrational             14.515              6.035              4.284
 Vibration     1          0.654              1.790              1.854
 Vibration     2          0.715              1.608              1.242
 Vibration     3          0.797              1.389              0.836

                       ! Non-Optimized Parameters !

 1\1\GINC-N2126\Freq\RMP2-FC\Aug-CC-pVTZ\H1N1O3\CGAVINH\21-Feb-2022\1\\
 #p freq mp2/aug-cc-pvtz density=current\\title\\0,1\H\O,1,r1\O,2,r2,1,
 a1\N,3,r3,2,a2,1,d1,0\O,4,r4,3,a3,2,d2,0\\r1=0.96897556\r2=1.45491931\
 r3=1.45878406\r4=1.17072885\a1=97.59494903\a2=104.35478238\a3=109.0695
 5123\d1=180.\d2=180.\\Version=ES64L-G16RevB.01\State=1-A'\HF=-279.5016
 405\MP2=-280.4465563\RMSD=3.812e-09\RMSF=2.125e-03\ZeroPoint=0.0218313
 \Thermal=0.0259644\Dipole=-0.1466939,0.,-0.5508075\DipoleDeriv=0.26366
 28,0.,0.0457114,0.,0.3556833,0.,0.0871526,0.,0.2800341,-0.3434592,0.,-

 Normal termination of Gaussian 16 at Mon Feb 21 20:46:53 2022.
