 Gaussian 16, Revision B.01,
 Gaussian 16:  ES64L-G16RevB.01 20-Dec-2017

 ---------------------------------------
 #p freq mp2/aug-cc-pvtz density=current
 ---------------------------------------

 -----
 title
 -----
 Symbolic Z-matrix:
 Charge =  0 Multiplicity = 1

                         Standard orientation:
 ---------------------------------------------------------------------
 Center     Atomic      Atomic             Coordinates (Angstroms)
 Number     Number       Type             X           Y           Z
 ---------------------------------------------------------------------
      1          1           0        1.569790    1.683693    0.000000
      2          8           0        1.454108    0.721647    0.000000
      3          8           0       -0.000000    0.673077    0.000000
      4          7           0       -0.262948   -0.761813   -0.000000
      5          8           0       -1.420252   -0.938599   -0.000000
 ---------------------------------------------------------------------

 SCF Done:  E(RHF) =  -279.501794145     A.U. after   14 cycles
 E2 =    -0.9448927600D+00 EUMP2 =    -0.28044668690470D+03
 E2 =    -0.9448927600D+00 EUMP2 =    -0.28044668690470D+03

 The electronic state is 1-A'.
 Alpha  occ. eigenvalues --  -20.69104 -20.68433 -20.65949 -15.81288  -1.62399
 Alpha  occ. eigenvalues --   -1.49503  -1.25458  -0.94803  -0.77222  -0.75993
 Alpha  occ. eigenvalues --   -0.71168  -0.67967  -0.62025  -0.58831  -0.48508
 Alpha  occ. eigenvalues --   -0.47250
 Alpha virt. eigenvalues --    0.02950   0.07171   0.08595   0.10176   0.13385
 Alpha virt. eigenvalues --    0.13401   0.14408   0.15447   0.17829   0.19429
 Alpha virt. eigenvalues --    0.19991   0.20631   0.22086   0.23543   0.23739

 Mulliken charges:
               1
     1  H    0.248745
     2  O   -0.201630
     3  O   -0.146210
     4  N    0.292219
     5  O   -0.193124
 Sum of Mulliken charges =  -0.00000

 Dipole moment (field-independent basis, Debye):
    X=              0.5351    Y=              1.3619    Z=              0.0000  Tot=              1.4633
 Quadrupole moment (field-independent basis, Debye-Ang):
   XX=            -22.3690   YY=            -18.6308   ZZ=            -22.0124
   XY=              3.3245   XZ=             -0.0000   YZ=             -0.0000

  Exact polarizability:  34.070   9.510  30.252   0.000   0.000  17.938
 Approx polarizability:  29.019   5.136  23.507   0.000   0.000  15.528

 ******    1 imaginary frequencies (negative Signs) ******

                      1                      2                      3
                     A"                     A"                     A'
 Frequencies --   -282.4956               232.0348               343.1016
 Red. masses --      1.1548                 9.2836                 8.5562
 Frc consts  --      0.0543                 0.2945                 0.5934
 IR Inten    --    124.9552                 1.6911                 4.1570

                      4                      5                      6
                     A'                     A'                     A'
 Frequencies --    450.8598               784.3542               965.3179
 Red. masses --     12.2062                12.9184                15.0242
 Frc consts  --      1.4619                 4.6826                 8.2486
 IR Inten    --    200.8231               171.4887                22.0330

                      7                      8                      9
                     A'                     A'                     A'
 Frequencies --   1363.8042              1677.0767              3779.0685
 Red. masses --      1.1367                13.3410                 1.0679
 Frc consts  --      1.2456                22.1077                 8.9853
 IR Inten    --    148.5763               142.1540                84.0664

 - Thermochemistry -
 -------------------
 Temperature   298.150 Kelvin.  Pressure   1.00000 Atm.
 Atom     1 has atomic number  1 and mass   1.00783

 Molecular mass:    62.99564 amu.
 Principal axes and moments of inertia in atomic units:
                           1         2         3
     Eigenvalues --    32.79625 360.38925 393.18550
           X            0.81084  -0.58526   0.00000
           Y            0.58526   0.81084   0.00000
           Z            0.00000  -0.00000   1.00000
 This molecule is an asymmetric top.
 Rotational symmetry number  1.
 Rotational temperatures (Kelvin)      2.64097     0.24033     0.22029
 Rotational constants (GHZ):          55.02889     5.00776     4.59005
    1 imaginary frequencies ignored.
 Zero-point vibrational energy      57394.5 (Joules/Mol)
                                   13.71762 (Kcal/Mol)
 Warning -- explicit consideration of   3 degrees of freedom as
           vibrations may cause significant error
 Vibrational temperatures:    333.85   493.65   648.69  1128.51  1388.88
          (Kelvin)           1962.21  2412.94  5437.24

 Zero-point correction=                           0.021860 (Hartree/Particle)
 Thermal correction to Energy=                    0.025973
 Thermal correction to Enthalpy=                  0.026918
 Thermal correction to Gibbs Free Energy=        -0.004254
 Sum of electronic and zero-point Energies=           -280.424826
 Sum of electronic and thermal Energies=              -280.420714
 Sum of electronic and thermal Enthalpies=            -280.419769
 Sum of electronic and thermal Free Energies=         -280.450941

                     E (Thermal)             CV                S
                      KCal/Mol        Cal/Mol-Kelvin    Cal/Mol-Kelvin
 Total                   16.299             11.955             65.605
 Electronic               0.000              0.000              0.000
 Translational            0.889              2.981             38.341
 Rotational               0.889              2.981             23.056
 Vibrational             14.521              5.993              4.208
 Vibration     1          0.653              1.792              1.863
 Vibration     2          0.722              1.589              1.198
 Vibration     3          0.810              1.359              0.793

                       ! Non-Optimized Parameters !

 1\1\GINC-N2228\Freq\RMP2-FC\Aug-CC-pVTZ\H1N1O3\CGAVINH\21-Feb-2022\1\\
 #p freq mp2/aug-cc-pvtz density=current\\title\\0,1\H\O,1,r1\O,2,r2,1,
 a1\N,3,r3,2,a2,1,d1,0\O,4,r4,3,a3,2,d2,0\\r1=0.96897556\r2=1.45491931\
 r3=1.45878406\r4=1.17072885\a1=98.76974624\a2=102.29752444\a3=109.0695
 5123\d1=180.\d2=180.\\Version=ES64L-G16RevB.01\State=1-A'\HF=-279.5017
 941\MP2=-280.4466869\RMSD=3.803e-09\RMSF=1.058e-03\ZeroPoint=0.0218604
 \Thermal=0.0259734\Dipole=-0.1450348,0.,-0.557121\DipoleDeriv=0.262179
 8,0.,0.0439958,0.,0.3569767,0.,0.0843974,0.,0.2777298,-0.3199888,0.,-0

 Normal termination of Gaussian 16 at Mon Feb 21 20:34:04 2022.
