 Gaussian 16, Revision B.01,
 Gaussian 16:  ES64L-G16RevB.01 20-Dec-2017

 ---------------------------------------
 #p freq mp2/aug-cc-pvtz density=current
 ---------------------------------------

 -----
 title
 -----
 Symbolic Z-matrix:
 Charge =  0 Multiplicity = 1

                         Standard orientation:
 ---------------------------------------------------------------------
 Center     Atomic      Atomic             Coordinates (Angstroms)
 Number     Number       Type             X           Y           Z
 ---------------------------------------------------------------------
      1          1           0        1.516325    1.691916   -0.000000
      2          8           0        1.453989    0.724947   -0.000000
      3          8           0       -0.000000    0.672929   -0.000000
      4          7           0       -0.259546   -0.762580    0.000000
      5          8           0       -1.416427   -0.942109    0.000000
 ---------------------------------------------------------------------

 SCF Done:  E(RHF) =  -279.501305861     A.U. after   14 cycles
 E2 =    -0.9453180297D+00 EUMP2 =    -0.28044662389115D+03
 E2 =    -0.9453180297D+00 EUMP2 =    -0.28044662389115D+03

 The electronic state is 1-A'.
 Alpha  occ. eigenvalues --  -20.69068 -20.68427 -20.66069 -15.81280  -1.62412
 Alpha  occ. eigenvalues --   -1.49691  -1.25413  -0.94817  -0.77374  -0.75798
 Alpha  occ. eigenvalues --   -0.71201  -0.67884  -0.62079  -0.59114  -0.48546
 Alpha  occ. eigenvalues --   -0.47253
 Alpha virt. eigenvalues --    0.02984   0.07159   0.08593   0.10165   0.13386
 Alpha virt. eigenvalues --    0.13407   0.14412   0.15463   0.17820   0.19398
 Alpha virt. eigenvalues --    0.19964   0.20641   0.22071   0.23534   0.23736

 Mulliken charges:
               1
     1  H    0.252912
     2  O   -0.201819
     3  O   -0.148667
     4  N    0.290994
     5  O   -0.193419
 Sum of Mulliken charges =  -0.00000

 Dipole moment (field-independent basis, Debye):
    X=              0.4651    Y=              1.3570    Z=             -0.0000  Tot=              1.4345
 Quadrupole moment (field-independent basis, Debye-Ang):
   XX=            -22.6234   YY=            -18.5978   ZZ=            -22.0072
   XY=              3.1447   XZ=             -0.0000   YZ=              0.0000

  Exact polarizability:  33.898   9.412  30.251  -0.000  -0.000  17.911
 Approx polarizability:  28.996   5.057  23.539  -0.000  -0.000  15.513

 ******    1 imaginary frequencies (negative Signs) ******

                      1                      2                      3
                     A"                     A"                     A'
 Frequencies --   -256.0421               225.7996               338.2008
 Red. masses --      1.1173                12.9610                 8.7089
 Frc consts  --      0.0432                 0.3893                 0.5869
 IR Inten    --    123.7441                 0.0074                 5.3903

                      4                      5                      6
                     A'                     A'                     A'
 Frequencies --    452.8932               787.0192               969.8079
 Red. masses --     12.4907                12.9164                15.7627
 Frc consts  --      1.5095                 4.7137                 8.7348
 IR Inten    --    198.0491               169.5210                23.9122

                      7                      8                      9
                     A'                     A'                     A'
 Frequencies --   1382.6239              1677.7577              3778.0572
 Red. masses --      1.1298                12.9778                 1.0670
 Frc consts  --      1.2725                21.5233                 8.9736
 IR Inten    --    160.5117               137.5863                80.3338

 - Thermochemistry -
 -------------------
 Temperature   298.150 Kelvin.  Pressure   1.00000 Atm.
 Atom     1 has atomic number  1 and mass   1.00783

 Molecular mass:    62.99564 amu.
 Principal axes and moments of inertia in atomic units:
                           1         2         3
     Eigenvalues --    32.91033 359.75727 392.66760
           X            0.80907  -0.58771   0.00000
           Y            0.58771   0.80907   0.00000
           Z            0.00000  -0.00000   1.00000
 This molecule is an asymmetric top.
 Rotational symmetry number  1.
 Rotational temperatures (Kelvin)      2.63182     0.24076     0.22058
 Rotational constants (GHZ):          54.83814     5.01655     4.59610
    1 imaginary frequencies ignored.
 Zero-point vibrational energy      57493.5 (Joules/Mol)
                                   13.74127 (Kcal/Mol)
 Warning -- explicit consideration of   3 degrees of freedom as
           vibrations may cause significant error
 Vibrational temperatures:    324.88   486.60   651.61  1132.35  1395.34
          (Kelvin)           1989.29  2413.92  5435.78

 Zero-point correction=                           0.021898 (Hartree/Particle)
 Thermal correction to Energy=                    0.026022
 Thermal correction to Enthalpy=                  0.026966
 Thermal correction to Gibbs Free Energy=        -0.004234
 Sum of electronic and zero-point Energies=           -280.424726
 Sum of electronic and thermal Energies=              -280.420602
 Sum of electronic and thermal Enthalpies=            -280.419658
 Sum of electronic and thermal Free Energies=         -280.450858

                     E (Thermal)             CV                S
                      KCal/Mol        Cal/Mol-Kelvin    Cal/Mol-Kelvin
 Total                   16.329             11.953             65.666
 Electronic               0.000              0.000              0.000
 Translational            0.889              2.981             38.341
 Rotational               0.889              2.981             23.057
 Vibrational             14.552              5.991              4.268
 Vibration     1          0.650              1.802              1.912
 Vibration     2          0.719              1.599              1.221
 Vibration     3          0.811              1.354              0.787

                       ! Non-Optimized Parameters !

 1\1\GINC-N2124\Freq\RMP2-FC\Aug-CC-pVTZ\H1N1O3\CGAVINH\21-Feb-2022\1\\
 #p freq mp2/aug-cc-pvtz density=current\\title\\0,1\H\O,1,r1\O,2,r2,1,
 a1\N,3,r3,2,a2,1,d1,0\O,4,r4,3,a3,2,d2,0\\r1=0.96897556\r2=1.45491931\
 r3=1.45878406\r4=1.17072885\a1=95.73743154\a2=102.29752444\a3=109.0695
 5123\d1=180.\d2=180.\\Version=ES64L-G16RevB.01\State=1-A'\HF=-279.5013
 059\MP2=-280.4466239\RMSD=3.772e-09\RMSF=1.601e-03\ZeroPoint=0.0218981
 \Thermal=0.0260219\Dipole=-0.148246,0.,-0.5445529\DipoleDeriv=0.273684
 1,0.,0.0550205,0.,0.353342,0.,0.0786108,0.,0.2723443,-0.3410782,0.,-0.

 Normal termination of Gaussian 16 at Mon Feb 21 20:42:11 2022.
