 Gaussian 16, Revision B.01,
 Gaussian 16:  ES64L-G16RevB.01 20-Dec-2017

 ---------------------------------------
 #p freq mp2/aug-cc-pvtz density=current
 ---------------------------------------

 -----
 title
 -----
 Symbolic Z-matrix:
 Charge =  0 Multiplicity = 1

                         Standard orientation:
 ---------------------------------------------------------------------
 Center     Atomic      Atomic             Coordinates (Angstroms)
 Number     Number       Type             X           Y           Z
 ---------------------------------------------------------------------
      1          1           0        2.248694    0.434365   -0.016704
      2          8           0        1.598472   -0.284044   -0.012946
      3          8           0        0.400450    0.541049    0.014577
      4          7           0       -0.663806   -0.456622    0.022437
      5          8           0       -1.699179    0.088244   -0.019176
 ---------------------------------------------------------------------

 SCF Done:  E(RHF) =  -279.501642729     A.U. after   14 cycles
 E2 =    -0.9450237392D+00 EUMP2 =    -0.28044666646840D+03
 E2 =    -0.9450237392D+00 EUMP2 =    -0.28044666646840D+03

 The electronic state is 1-A.
 Alpha  occ. eigenvalues --  -20.69083 -20.68433 -20.65999 -15.81281  -1.62404
 Alpha  occ. eigenvalues --   -1.49573  -1.25440  -0.94807  -0.77277  -0.75917
 Alpha  occ. eigenvalues --   -0.71191  -0.67925  -0.62049  -0.58940  -0.48522
 Alpha  occ. eigenvalues --   -0.47250
 Alpha virt. eigenvalues --    0.02963   0.07162   0.08597   0.10172   0.13295
 Alpha virt. eigenvalues --    0.13492   0.14409   0.15454   0.17818   0.19415
 Alpha virt. eigenvalues --    0.19970   0.20647   0.22085   0.23496   0.23793

 Mulliken charges:
               1
     1  H    0.250300
     2  O   -0.201573
     3  O   -0.147318
     4  N    0.291701
     5  O   -0.193109
 Sum of Mulliken charges =  -0.00000

 Dipole moment (field-independent basis, Debye):
    X=              1.2171    Y=              0.7911    Z=             -0.0061  Tot=              1.4516
 Quadrupole moment (field-independent basis, Debye-Ang):
   XX=            -17.9889   YY=            -23.0931   ZZ=            -22.0123
   XY=              2.7913   XZ=             -0.0900   YZ=              0.0351

  Exact polarizability:  41.718   0.975  22.519   0.054  -0.037  17.936
 Approx polarizability:  31.939  -1.130  20.577   0.108  -0.008  15.532

 ******    1 imaginary frequencies (negative Signs) ******

                      1                      2                      3
                      A                      A                      A
 Frequencies --   -269.4385               228.0012               341.5502
 Red. masses --      1.1387                10.5220                 8.6246
 Frc consts  --      0.0487                 0.3223                 0.5928
 IR Inten    --    124.7268                 1.0956                 4.4475

                      4                      5                      6
                      A                      A                      A
 Frequencies --    451.7435               785.5227               967.2509
 Red. masses --     12.3113                12.9157                15.3947
 Frc consts  --      1.4803                 4.6955                 8.4859
 IR Inten    --    199.5464               170.6193                22.5655

                      7                      8                      9
                      A                      A                      A
 Frequencies --   1371.2011              1677.2189              3778.6972
 Red. masses --      1.1334                13.2088                 1.0675
 Frc consts  --      1.2556                21.8924                 8.9809
 IR Inten    --    152.9135               140.4011                82.5658

 - Thermochemistry -
 -------------------
 Temperature   298.150 Kelvin.  Pressure   1.00000 Atm.
 Atom     1 has atomic number  1 and mass   1.00783

 Molecular mass:    62.99564 amu.
 Principal axes and moments of inertia in atomic units:
                           1         2         3
     Eigenvalues --    32.89981 360.07557 392.83778
           X            0.99994   0.01071  -0.00038
           Y           -0.01071   0.99994  -0.00083
           Z            0.00037   0.00083   1.00000
 This molecule is an asymmetric top.
 Rotational symmetry number  1.
 Rotational temperatures (Kelvin)      2.63266     0.24054     0.22048
 Rotational constants (GHZ):          54.85566     5.01212     4.59411
    1 imaginary frequencies ignored.
 Zero-point vibrational energy      57427.8 (Joules/Mol)
                                   13.72558 (Kcal/Mol)
 Warning -- explicit consideration of   3 degrees of freedom as
           vibrations may cause significant error
 Vibrational temperatures:    328.04   491.41   649.96  1130.19  1391.66
          (Kelvin)           1972.85  2413.14  5436.70

 Zero-point correction=                           0.021873 (Hartree/Particle)
 Thermal correction to Energy=                    0.025992
 Thermal correction to Enthalpy=                  0.026936
 Thermal correction to Gibbs Free Energy=        -0.004252
 Sum of electronic and zero-point Energies=           -280.424793
 Sum of electronic and thermal Energies=              -280.420674
 Sum of electronic and thermal Enthalpies=            -280.419730
 Sum of electronic and thermal Free Energies=         -280.450918

                     E (Thermal)             CV                S
                      KCal/Mol        Cal/Mol-Kelvin    Cal/Mol-Kelvin
 Total                   16.310             11.955             65.640
 Electronic               0.000              0.000              0.000
 Translational            0.889              2.981             38.341
 Rotational               0.889              2.981             23.058
 Vibrational             14.533              5.994              4.242
 Vibration     1          0.651              1.798              1.895
 Vibration     2          0.721              1.592              1.205
 Vibration     3          0.810              1.357              0.791

                       ! Non-Optimized Parameters !

 1\1\GINC-N2109\Freq\RMP2-FC\Aug-CC-pVTZ\H1N1O3\CGAVINH\21-Feb-2022\1\\
 #p freq mp2/aug-cc-pvtz density=current\\title\\0,1\H\O,1,r1\O,2,r2,1,
 a1\N,3,r3,2,a2,1,d1,0\O,4,r4,3,a3,2,d2,0\\r1=0.96897556\r2=1.45491931\
 r3=1.45878406\r4=1.17072885\a1=97.59494903\a2=102.29752444\a3=109.0695
 5123\d1=180.\d2=183.30424945\\Version=ES64L-G16RevB.01\State=1-A\HF=-2
 79.5016427\MP2=-280.4466665\RMSD=7.709e-09\RMSF=5.404e-04\ZeroPoint=0.
 0218731\Thermal=0.0259921\Dipole=-0.1461446,-0.002469,-0.5520867\Dipol
 eDeriv=0.2663696,-0.0004933,0.0482464,0.001152,0.3555614,0.0014531,0.0

 Normal termination of Gaussian 16 at Mon Feb 21 21:12:49 2022.
