 Gaussian 16, Revision B.01,
 Gaussian 16:  ES64L-G16RevB.01 20-Dec-2017

 ---------------------------------------
 #p freq mp2/aug-cc-pvtz density=current
 ---------------------------------------

 -----
 title
 -----
 Symbolic Z-matrix:
 Charge =  0 Multiplicity = 1

                         Standard orientation:
 ---------------------------------------------------------------------
 Center     Atomic      Atomic             Coordinates (Angstroms)
 Number     Number       Type             X           Y           Z
 ---------------------------------------------------------------------
      1          1           0        1.551091    1.692119    0.000000
      2          8           0        1.454158    0.728004    0.000000
      3          8           0       -0.000000    0.680942   -0.000000
      4          7           0       -0.264437   -0.753674   -0.000000
      5          8           0       -1.416662   -0.960997   -0.000000
 ---------------------------------------------------------------------

 SCF Done:  E(RHF) =  -279.501383127     A.U. after   14 cycles
 E2 =    -0.9451706747D+00 EUMP2 =    -0.28044655380126D+03
 E2 =    -0.9451706747D+00 EUMP2 =    -0.28044655380126D+03

 The electronic state is 1-A'.
 Alpha  occ. eigenvalues --  -20.69154 -20.68484 -20.66096 -15.81227  -1.62275
 Alpha  occ. eigenvalues --   -1.49688  -1.25565  -0.94767  -0.77361  -0.75867
 Alpha  occ. eigenvalues --   -0.71151  -0.67977  -0.62106  -0.59076  -0.48595
 Alpha  occ. eigenvalues --   -0.47053
 Alpha virt. eigenvalues --    0.02951   0.07233   0.08563   0.10173   0.13404
 Alpha virt. eigenvalues --    0.13405   0.14402   0.15463   0.17809   0.19423
 Alpha virt. eigenvalues --    0.19975   0.20604   0.22081   0.23388   0.23717

 Mulliken charges:
               1
     1  H    0.250299
     2  O   -0.198230
     3  O   -0.149299
     4  N    0.289925
     5  O   -0.192695
 Sum of Mulliken charges =  -0.00000

 Dipole moment (field-independent basis, Debye):
    X=              0.5031    Y=              1.3807    Z=              0.0000  Tot=              1.4695
 Quadrupole moment (field-independent basis, Debye-Ang):
   XX=            -22.4188   YY=            -18.6261   ZZ=            -22.0183
   XY=              3.2944   XZ=             -0.0000   YZ=              0.0000

  Exact polarizability:  34.041   9.617  30.492   0.000   0.000  17.957
 Approx polarizability:  28.961   5.308  23.687   0.000   0.000  15.536

 ******    1 imaginary frequencies (negative Signs) ******

                      1                      2                      3
                     A"                     A"                     A'
 Frequencies --   -274.3946               226.5135               340.4597
 Red. masses --      1.1452                 9.9038                 8.5621
 Frc consts  --      0.0508                 0.2994                 0.5847
 IR Inten    --    124.2705                 1.2278                 7.4306

                      4                      5                      6
                     A'                     A'                     A'
 Frequencies --    438.3584               787.3589               965.9032
 Red. masses --     12.5194                12.9030                15.2763
 Frc consts  --      1.4174                 4.7129                 8.3972
 IR Inten    --    198.7774               176.9205                25.5176

                      7                      8                      9
                     A'                     A'                     A'
 Frequencies --   1370.9076              1676.8237              3778.9719
 Red. masses --      1.1338                13.1374                 1.0676
 Frc consts  --      1.2554                21.7639                 8.9823
 IR Inten    --    155.9327               145.0049                83.7744

 - Thermochemistry -
 -------------------
 Temperature   298.150 Kelvin.  Pressure   1.00000 Atm.
 Atom     1 has atomic number  1 and mass   1.00783

 Molecular mass:    62.99564 amu.
 Principal axes and moments of inertia in atomic units:
                           1         2         3
     Eigenvalues --    32.59865 362.89474 395.49339
           X            0.80650  -0.59123   0.00000
           Y            0.59123   0.80650   0.00000
           Z           -0.00000   0.00000   1.00000
 This molecule is an asymmetric top.
 Rotational symmetry number  1.
 Rotational temperatures (Kelvin)      2.65698     0.23868     0.21900
 Rotational constants (GHZ):          55.36246     4.97318     4.56327
    1 imaginary frequencies ignored.
 Zero-point vibrational energy      57332.8 (Joules/Mol)
                                   13.70287 (Kcal/Mol)
 Warning -- explicit consideration of   3 degrees of freedom as
           vibrations may cause significant error
 Vibrational temperatures:    325.90   489.85   630.70  1132.83  1389.72
          (Kelvin)           1972.43  2412.58  5437.10

 Zero-point correction=                           0.021837 (Hartree/Particle)
 Thermal correction to Energy=                    0.025971
 Thermal correction to Enthalpy=                  0.026915
 Thermal correction to Gibbs Free Energy=        -0.004303
 Sum of electronic and zero-point Energies=           -280.424717
 Sum of electronic and thermal Energies=              -280.420583
 Sum of electronic and thermal Enthalpies=            -280.419639
 Sum of electronic and thermal Free Energies=         -280.450857

                     E (Thermal)             CV                S
                      KCal/Mol        Cal/Mol-Kelvin    Cal/Mol-Kelvin
 Total                   16.297             11.988             65.703
 Electronic               0.000              0.000              0.000
 Translational            0.889              2.981             38.341
 Rotational               0.889              2.981             23.063
 Vibrational             14.519              6.026              4.299
 Vibration     1          0.650              1.801              1.906
 Vibration     2          0.720              1.595              1.210
 Vibration     3          0.799              1.387              0.832

                       ! Non-Optimized Parameters !

 1\1\GINC-N2126\Freq\RMP2-FC\Aug-CC-pVTZ\H1N1O3\CGAVINH\21-Feb-2022\1\\
 #p freq mp2/aug-cc-pvtz density=current\\title\\0,1\H\O,1,r1\O,2,r2,1,
 a1\N,3,r3,2,a2,1,d1,0\O,4,r4,3,a3,2,d2,0\\r1=0.96897556\r2=1.45491931\
 r3=1.45878406\r4=1.17072885\a1=97.59494903\a2=102.29752444\a3=110.6440
 6752\d1=180.\d2=180.\\Version=ES64L-G16RevB.01\State=1-A'\HF=-279.5013
 831\MP2=-280.4465538\RMSD=3.869e-09\RMSF=2.925e-03\ZeroPoint=0.0218369
 \Thermal=0.0259705\Dipole=-0.1426157,0.,-0.5602706\DipoleDeriv=0.26723
 ,0.,0.0487463,0.,0.3558393,0.,0.0834293,0.,0.2779455,-0.3249765,0.,-0.

 Normal termination of Gaussian 16 at Mon Feb 21 20:55:42 2022.
