 Gaussian 16, Revision B.01,
 Gaussian 16:  ES64L-G16RevB.01 20-Dec-2017

 ---------------------------------------
 #p freq mp2/aug-cc-pvtz density=current
 ---------------------------------------

 -----
 title
 -----
 Symbolic Z-matrix:
 Charge =  0 Multiplicity = 1

                         Standard orientation:
 ---------------------------------------------------------------------
 Center     Atomic      Atomic             Coordinates (Angstroms)
 Number     Number       Type             X           Y           Z
 ---------------------------------------------------------------------
      1          1           0        1.518757    1.700262    0.000000
      2          8           0        1.432286    0.735152    0.000000
      3          8           0       -0.000000    0.673241    0.000000
      4          7           0       -0.248862   -0.764159   -0.000000
      5          8           0       -1.404376   -0.952287   -0.000000
 ---------------------------------------------------------------------

 SCF Done:  E(RHF) =  -279.503183322     A.U. after   14 cycles
 E2 =    -0.9433238727D+00 EUMP2 =    -0.28044650719431D+03
 E2 =    -0.9433238727D+00 EUMP2 =    -0.28044650719431D+03

 The electronic state is 1-A'.
 Alpha  occ. eigenvalues --  -20.68966 -20.68391 -20.65814 -15.81238  -1.62477
 Alpha  occ. eigenvalues --   -1.50441  -1.25057  -0.94837  -0.77515  -0.76095
 Alpha  occ. eigenvalues --   -0.71386  -0.67949  -0.62249  -0.59219  -0.48131
 Alpha  occ. eigenvalues --   -0.47197
 Alpha virt. eigenvalues --    0.02966   0.07171   0.08643   0.10179   0.13394
 Alpha virt. eigenvalues --    0.13484   0.14419   0.15462   0.17820   0.19398
 Alpha virt. eigenvalues --    0.19972   0.20654   0.22248   0.23755   0.24553

 Mulliken charges:
               1
     1  H    0.249057
     2  O   -0.199170
     3  O   -0.145742
     4  N    0.289821
     5  O   -0.193965
 Sum of Mulliken charges =  -0.00000

 Dipole moment (field-independent basis, Debye):
    X=              0.5042    Y=              1.3804    Z=              0.0000  Tot=              1.4696
 Quadrupole moment (field-independent basis, Debye-Ang):
   XX=            -22.5857   YY=            -18.5384   ZZ=            -21.9804
   XY=              3.1866   XZ=              0.0000   YZ=              0.0000

  Exact polarizability:  33.476   9.433  30.339  -0.000  -0.000  17.857
 Approx polarizability:  28.401   5.118  23.569  -0.000   0.000  15.487

 ******    1 imaginary frequencies (negative Signs) ******

                      1                      2                      3
                     A"                     A"                     A'
 Frequencies --   -261.8439               220.3892               336.5394
 Red. masses --      1.1350                10.8850                 8.4954
 Frc consts  --      0.0458                 0.3115                 0.5669
 IR Inten    --    125.5113                 0.5686                 8.5514

                      4                      5                      6
                     A'                     A'                     A'
 Frequencies --    458.1664               796.3010              1014.2965
 Red. masses --     12.4745                12.7612                15.7780
 Frc consts  --      1.5428                 4.7675                 9.5638
 IR Inten    --    198.7889               175.3904                15.0034

                      7                      8                      9
                     A'                     A'                     A'
 Frequencies --   1395.2152              1678.4877              3776.5825
 Red. masses --      1.1356                12.9378                 1.0674
 Frc consts  --      1.3024                21.4757                 8.9696
 IR Inten    --    155.4808               138.8121                83.4959

 - Thermochemistry -
 -------------------
 Temperature   298.150 Kelvin.  Pressure   1.00000 Atm.
 Atom     1 has atomic number  1 and mass   1.00783

 Molecular mass:    62.99564 amu.
 Principal axes and moments of inertia in atomic units:
                           1         2         3
     Eigenvalues --    32.52788 356.57177 389.09965
           X            0.80228  -0.59695   0.00000
           Y            0.59695   0.80228   0.00000
           Z            0.00000  -0.00000   1.00000
 This molecule is an asymmetric top.
 Rotational symmetry number  1.
 Rotational temperatures (Kelvin)      2.66276     0.24291     0.22260
 Rotational constants (GHZ):          55.48290     5.06137     4.63825
    1 imaginary frequencies ignored.
 Zero-point vibrational energy      57875.2 (Joules/Mol)
                                   13.83250 (Kcal/Mol)
 Warning -- explicit consideration of   3 degrees of freedom as
           vibrations may cause significant error
 Vibrational temperatures:    317.09   484.21   659.20  1145.70  1459.35
          (Kelvin)           2007.40  2414.97  5433.66

 Zero-point correction=                           0.022043 (Hartree/Particle)
 Thermal correction to Energy=                    0.026163
 Thermal correction to Enthalpy=                  0.027107
 Thermal correction to Gibbs Free Energy=        -0.004083
 Sum of electronic and zero-point Energies=           -280.424464
 Sum of electronic and thermal Energies=              -280.420344
 Sum of electronic and thermal Enthalpies=            -280.419400
 Sum of electronic and thermal Free Energies=         -280.450591

                     E (Thermal)             CV                S
                      KCal/Mol        Cal/Mol-Kelvin    Cal/Mol-Kelvin
 Total                   16.418             11.883             65.646
 Electronic               0.000              0.000              0.000
 Translational            0.889              2.981             38.341
 Rotational               0.889              2.981             23.027
 Vibrational             14.640              5.921              4.278
 Vibration     1          0.647              1.810              1.956
 Vibration     2          0.717              1.603              1.229
 Vibration     3          0.816              1.343              0.771

                       ! Non-Optimized Parameters !

 1\1\GINC-N2129\Freq\RMP2-FC\Aug-CC-pVTZ\H1N1O3\CGAVINH\21-Feb-2022\1\\
 #p freq mp2/aug-cc-pvtz density=current\\title\\0,1\H\O,1,r1\O,2,r2,1,
 a1\N,3,r3,2,a2,1,d1,0\O,4,r4,3,a3,2,d2,0\\r1=0.96897556\r2=1.43362313\
 r3=1.45878406\r4=1.17072885\a1=97.59494903\a2=102.29752444\a3=109.0695
 5123\d1=180.\d2=180.\\Version=ES64L-G16RevB.01\State=1-A'\HF=-279.5031
 833\MP2=-280.4465072\RMSD=3.601e-09\RMSF=3.939e-03\ZeroPoint=0.0220435
 \Thermal=0.0261631\Dipole=-0.1491106,0.,-0.5586098\DipoleDeriv=0.26718
 07,0.,0.0495118,0.,0.3564762,0.,0.0787291,0.,0.2782023,-0.3301761,0.,-

 Normal termination of Gaussian 16 at Mon Feb 21 20:16:31 2022.
