 Gaussian 16, Revision B.01,
 Gaussian 16:  ES64L-G16RevB.01 20-Dec-2017

 ---------------------------------------
 #p freq mp2/aug-cc-pvtz density=current
 ---------------------------------------

 -----
 title
 -----
 Symbolic Z-matrix:
 Charge =  0 Multiplicity = 1

                         Standard orientation:
 ---------------------------------------------------------------------
 Center     Atomic      Atomic             Coordinates (Angstroms)
 Number     Number       Type             X           Y           Z
 ---------------------------------------------------------------------
      1          1           0        1.547022    1.690615    0.000000
      2          8           0        1.453957    0.726119    0.000000
      3          8           0        0.000000    0.673223    0.000000
      4          7           0       -0.258679   -0.762442    0.000000
      5          8           0       -1.420991   -0.943532    0.000000
 ---------------------------------------------------------------------

 SCF Done:  E(RHF) =  -279.500684764     A.U. after   14 cycles
 E2 =    -0.9460091452D+00 EUMP2 =    -0.28044669390944D+03
 E2 =    -0.9460091452D+00 EUMP2 =    -0.28044669390944D+03

 The electronic state is 1-A'.
 Alpha  occ. eigenvalues --  -20.69219 -20.68407 -20.66069 -15.81365  -1.61956
 Alpha  occ. eigenvalues --   -1.49562  -1.25497  -0.94884  -0.77216  -0.75771
 Alpha  occ. eigenvalues --   -0.71071  -0.67868  -0.61929  -0.58979  -0.48568
 Alpha  occ. eigenvalues --   -0.47359
 Alpha virt. eigenvalues --    0.02948   0.06995   0.08603   0.10172   0.13387
 Alpha virt. eigenvalues --    0.13406   0.14396   0.15440   0.17816   0.19424
 Alpha virt. eigenvalues --    0.19960   0.20636   0.22063   0.23496   0.23734

 Mulliken charges:
               1
     1  H    0.250453
     2  O   -0.201140
     3  O   -0.145934
     4  N    0.291121
     5  O   -0.194499
 Sum of Mulliken charges =   0.00000

 Dipole moment (field-independent basis, Debye):
    X=              0.5291    Y=              1.3854    Z=             -0.0000  Tot=              1.4830
 Quadrupole moment (field-independent basis, Debye-Ang):
   XX=            -22.4980   YY=            -18.6158   ZZ=            -22.0197
   XY=              3.2373   XZ=              0.0000   YZ=              0.0000

  Exact polarizability:  34.060   9.532  30.328  -0.000  -0.000  17.938
 Approx polarizability:  29.131   5.150  23.569  -0.000  -0.000  15.546

 ******    1 imaginary frequencies (negative Signs) ******

                      1                      2                      3
                     A"                     A"                     A'
 Frequencies --   -270.1627               246.6063               345.4447
 Red. masses --      1.1340                10.9600                 8.5481
 Frc consts  --      0.0488                 0.3927                 0.6010
 IR Inten    --    124.9973                 0.5208                 6.1970

                      4                      5                      6
                     A'                     A'                     A'
 Frequencies --    448.7041               785.5138               966.6089
 Red. masses --     12.3972                13.0407                15.3937
 Frc consts  --      1.4706                 4.7409                 8.4741
 IR Inten    --    198.5341               170.6703                23.3297

                      7                      8                      9
                     A'                     A'                     A'
 Frequencies --   1370.6347              1641.8849              3778.7537
 Red. masses --      1.1370                12.6656                 1.0675
 Frc consts  --      1.2585                20.1169                 8.9812
 IR Inten    --    156.4167               126.2941                82.9656

 - Thermochemistry -
 -------------------
 Temperature   298.150 Kelvin.  Pressure   1.00000 Atm.
 Atom     1 has atomic number  1 and mass   1.00783

 Molecular mass:    62.99564 amu.
 Principal axes and moments of inertia in atomic units:
                           1         2         3
     Eigenvalues --    32.86303 361.09664 393.95967
           X            0.80942  -0.58723   0.00000
           Y            0.58723   0.80942   0.00000
           Z            0.00000   0.00000   1.00000
 This molecule is an asymmetric top.
 Rotational symmetry number  1.
 Rotational temperatures (Kelvin)      2.63560     0.23986     0.21985
 Rotational constants (GHZ):          54.91706     4.99795     4.58103
    1 imaginary frequencies ignored.
 Zero-point vibrational energy      57326.0 (Joules/Mol)
                                   13.70123 (Kcal/Mol)
 Warning -- explicit consideration of   3 degrees of freedom as
           vibrations may cause significant error
 Vibrational temperatures:    354.81   497.02   645.59  1130.18  1390.73
          (Kelvin)           1972.04  2362.31  5436.78

 Zero-point correction=                           0.021834 (Hartree/Particle)
 Thermal correction to Energy=                    0.025925
 Thermal correction to Enthalpy=                  0.026869
 Thermal correction to Gibbs Free Energy=        -0.004251
 Sum of electronic and zero-point Energies=           -280.424860
 Sum of electronic and thermal Energies=              -280.420769
 Sum of electronic and thermal Enthalpies=            -280.419825
 Sum of electronic and thermal Free Energies=         -280.450945

                     E (Thermal)             CV                S
                      KCal/Mol        Cal/Mol-Kelvin    Cal/Mol-Kelvin
 Total                   16.268             11.931             65.497
 Electronic               0.000              0.000              0.000
 Translational            0.889              2.981             38.341
 Rotational               0.889              2.981             23.062
 Vibrational             14.491              5.969              4.094
 Vibration     1          0.661              1.768              1.755
 Vibration     2          0.724              1.585              1.187
 Vibration     3          0.808              1.364              0.800

                       ! Non-Optimized Parameters !

 1\1\GINC-N2228\Freq\RMP2-FC\Aug-CC-pVTZ\H1N1O3\CGAVINH\21-Feb-2022\1\\
 #p freq mp2/aug-cc-pvtz density=current\\title\\0,1\H\O,1,r1\O,2,r2,1,
 a1\N,3,r3,2,a2,1,d1,0\O,4,r4,3,a3,2,d2,0\\r1=0.96897556\r2=1.45491931\
 r3=1.45878406\r4=1.17633449\a1=97.59494903\a2=102.29752444\a3=109.0695
 5123\d1=180.\d2=180.\\Version=ES64L-G16RevB.01\State=1-A'\HF=-279.5006
 848\MP2=-280.4466939\RMSD=3.943e-09\RMSF=2.802e-03\ZeroPoint=0.0218343
 \Thermal=0.0259251\Dipole=-0.1548622,0.,-0.5625185\DipoleDeriv=0.26638
 65,0.,0.0483799,0.,0.355738,0.,0.0825086,0.,0.2762353,-0.3291507,0.,-0

 Normal termination of Gaussian 16 at Mon Feb 21 20:25:24 2022.
