 Gaussian 16, Revision B.01,
 Gaussian 16:  ES64L-G16RevB.01 20-Dec-2017

 ---------------------------------------
 #p freq mp2/aug-cc-pvtz density=current
 ---------------------------------------

 -----
 title
 -----
 Symbolic Z-matrix:
 Charge =  0 Multiplicity = 1

                         Standard orientation:
 ---------------------------------------------------------------------
 Center     Atomic      Atomic             Coordinates (Angstroms)
 Number     Number       Type             X           Y           Z
 ---------------------------------------------------------------------
      1          1           0        1.548037    1.683981    0.000000
      2          8           0        1.454010    0.719578    0.000000
      3          8           0        0.000000    0.668135    0.000000
      4          7           0       -0.260113   -0.767271   -0.000000
      5          8           0       -1.419915   -0.926849   -0.000000
 ---------------------------------------------------------------------

 SCF Done:  E(RHF) =  -279.501677074     A.U. after   14 cycles
 E2 =    -0.9449895387D+00 EUMP2 =    -0.28044666661285D+03
 E2 =    -0.9449895387D+00 EUMP2 =    -0.28044666661285D+03

 The electronic state is 1-A'.
 Alpha  occ. eigenvalues --  -20.69048 -20.68395 -20.65935 -15.81316  -1.62484
 Alpha  occ. eigenvalues --   -1.49502  -1.25362  -0.94832  -0.77225  -0.75952
 Alpha  occ. eigenvalues --   -0.71198  -0.67912  -0.62007  -0.58858  -0.48476
 Alpha  occ. eigenvalues --   -0.47365
 Alpha virt. eigenvalues --    0.02970   0.07126   0.08613   0.10170   0.13390
 Alpha virt. eigenvalues --    0.13390   0.14413   0.15446   0.17836   0.19413
 Alpha virt. eigenvalues --    0.19985   0.20654   0.22080   0.23638   0.23751

 Mulliken charges:
               1
     1  H    0.250206
     2  O   -0.203693
     3  O   -0.145771
     4  N    0.292860
     5  O   -0.193602
 Sum of Mulliken charges =  -0.00000

 Dipole moment (field-independent basis, Debye):
    X=              0.5107    Y=              1.3479    Z=              0.0000  Tot=              1.4414
 Quadrupole moment (field-independent basis, Debye-Ang):
   XX=            -22.4998   YY=            -18.6097   ZZ=            -22.0055
   XY=              3.2322   XZ=             -0.0000   YZ=             -0.0000

  Exact polarizability:  33.977   9.382  30.107   0.000   0.000  17.910
 Approx polarizability:  29.034   4.979  23.424   0.000   0.000  15.513

 ******    1 imaginary frequencies (negative Signs) ******

                      1                      2                      3
                     A"                     A"                     A'
 Frequencies --   -266.1871               229.5610               341.5764
 Red. masses --      1.1355                10.8978                 8.6444
 Frc consts  --      0.0474                 0.3384                 0.5942
 IR Inten    --    124.9507                 0.5554                 3.5378

                      4                      5                      6
                     A'                     A'                     A'
 Frequencies --    459.5745               784.0599               968.1556
 Red. masses --     12.1937                12.9382                15.4598
 Frc consts  --      1.5174                 4.6862                 8.5378
 IR Inten    --    200.0786               166.3220                21.0724

                      7                      8                      9
                     A'                     A'                     A'
 Frequencies --   1371.3865              1677.5845              3778.5309
 Red. masses --      1.1332                13.2510                 1.0675
 Frc consts  --      1.2557                21.9719                 8.9801
 IR Inten    --    151.2022               137.6823                81.7670

 - Thermochemistry -
 -------------------
 Temperature   298.150 Kelvin.  Pressure   1.00000 Atm.
 Atom     1 has atomic number  1 and mass   1.00783

 Molecular mass:    62.99564 amu.
 Principal axes and moments of inertia in atomic units:
                           1         2         3
     Eigenvalues --    32.99978 358.42007 391.41985
           X            0.81243  -0.58305   0.00000
           Y            0.58305   0.81243   0.00000
           Z            0.00000  -0.00000   1.00000
 This molecule is an asymmetric top.
 Rotational symmetry number  1.
 Rotational temperatures (Kelvin)      2.62468     0.24165     0.22128
 Rotational constants (GHZ):          54.68949     5.03527     4.61076
    1 imaginary frequencies ignored.
 Zero-point vibrational energy      57483.1 (Joules/Mol)
                                   13.73880 (Kcal/Mol)
 Warning -- explicit consideration of   3 degrees of freedom as
           vibrations may cause significant error
 Vibrational temperatures:    330.29   491.45   661.23  1128.09  1392.96
          (Kelvin)           1973.12  2413.67  5436.46

 Zero-point correction=                           0.021894 (Hartree/Particle)
 Thermal correction to Energy=                    0.026005
 Thermal correction to Enthalpy=                  0.026949
 Thermal correction to Gibbs Free Energy=        -0.004220
 Sum of electronic and zero-point Energies=           -280.424772
 Sum of electronic and thermal Energies=              -280.420662
 Sum of electronic and thermal Enthalpies=            -280.419718
 Sum of electronic and thermal Free Energies=         -280.450887

                     E (Thermal)             CV                S
                      KCal/Mol        Cal/Mol-Kelvin    Cal/Mol-Kelvin
 Total                   16.318             11.937             65.601
 Electronic               0.000              0.000              0.000
 Translational            0.889              2.981             38.341
 Rotational               0.889              2.981             23.053
 Vibrational             14.541              5.975              4.207
 Vibration     1          0.652              1.796              1.882
 Vibration     2          0.721              1.592              1.205
 Vibration     3          0.817              1.340              0.767

                       ! Non-Optimized Parameters !

 1\1\GINC-N2109\Freq\RMP2-FC\Aug-CC-pVTZ\H1N1O3\CGAVINH\21-Feb-2022\1\\
 #p freq mp2/aug-cc-pvtz density=current\\title\\0,1\H\O,1,r1\O,2,r2,1,
 a1\N,3,r3,2,a2,1,d1,0\O,4,r4,3,a3,2,d2,0\\r1=0.96897556\r2=1.45491931\
 r3=1.45878406\r4=1.17072885\a1=97.59494903\a2=102.29752444\a3=108.1053
 6085\d1=180.\d2=180.\\Version=ES64L-G16RevB.01\State=1-A'\HF=-279.5016
 771\MP2=-280.4466666\RMSD=3.749e-09\RMSF=1.826e-03\ZeroPoint=0.0218942
 \Thermal=0.0260045\Dipole=-0.148517,0.,-0.5472837\DipoleDeriv=0.265802
 9,0.,0.0480063,0.,0.3553645,0.,0.081322,0.,0.2740899,-0.330354,0.,-0.2

 Normal termination of Gaussian 16 at Mon Feb 21 20:58:47 2022.
