 Gaussian 16, Revision B.01,
 Gaussian 16:  ES64L-G16RevB.01 20-Dec-2017

 ---------------------------------------
 #p freq mp2/aug-cc-pvtz density=current
 ---------------------------------------

 -----
 title
 -----
 Symbolic Z-matrix:
 Charge =  0 Multiplicity = 1

                         Standard orientation:
 ---------------------------------------------------------------------
 Center     Atomic      Atomic             Coordinates (Angstroms)
 Number     Number       Type             X           Y           Z
 ---------------------------------------------------------------------
      1          1           0        1.521966    1.698904    0.000000
      2          8           0        1.434589    0.733876    0.000000
      3          8           0        0.000000    0.673214    0.000000
      4          7           0       -0.250210   -0.763952   -0.000000
      5          8           0       -1.405901   -0.950995   -0.000000
 ---------------------------------------------------------------------

 SCF Done:  E(RHF) =  -279.503050537     A.U. after   14 cycles
 E2 =    -0.9435039423D+00 EUMP2 =    -0.28044655447889D+03
 E2 =    -0.9435039423D+00 EUMP2 =    -0.28044655447889D+03

 The electronic state is 1-A'.
 Alpha  occ. eigenvalues --  -20.68979 -20.68395 -20.65834 -15.81243  -1.62468
 Alpha  occ. eigenvalues --   -1.50348  -1.25098  -0.94834  -0.77489  -0.76076
 Alpha  occ. eigenvalues --   -0.71363  -0.67947  -0.62228  -0.59192  -0.48173
 Alpha  occ. eigenvalues --   -0.47203
 Alpha virt. eigenvalues --    0.02966   0.07170   0.08638   0.10179   0.13394
 Alpha virt. eigenvalues --    0.13476   0.14418   0.15461   0.17821   0.19400
 Alpha virt. eigenvalues --    0.19973   0.20652   0.22237   0.23754   0.24440

 Mulliken charges:
               1
     1  H    0.249184
     2  O   -0.199418
     3  O   -0.145913
     4  N    0.290036
     5  O   -0.193889
 Sum of Mulliken charges =  -0.00000

 Dipole moment (field-independent basis, Debye):
    X=              0.5046    Y=              1.3782    Z=              0.0000  Tot=              1.4677
 Quadrupole moment (field-independent basis, Debye-Ang):
   XX=            -22.5734   YY=            -18.5465   ZZ=            -21.9835
   XY=              3.1941   XZ=             -0.0000   YZ=              0.0000

  Exact polarizability:  33.532   9.437  30.330   0.000   0.000  17.865
 Approx polarizability:  28.464   5.117  23.564   0.000   0.000  15.491

 ******    1 imaginary frequencies (negative Signs) ******

                      1                      2                      3
                     A"                     A"                     A'
 Frequencies --   -262.5830               221.4131               337.1696
 Red. masses --      1.1354                10.8411                 8.5068
 Frc consts  --      0.0461                 0.3131                 0.5698
 IR Inten    --    125.4276                 0.5915                 8.0652

                      4                      5                      6
                     A'                     A'                     A'
 Frequencies --    457.4631               795.3220              1009.0500
 Red. masses --     12.4598                12.7704                15.7551
 Frc consts  --      1.5363                 4.7593                 9.4514
 IR Inten    --    198.9765               175.1191                15.5655

                      7                      8                      9
                     A'                     A'                     A'
 Frequencies --   1392.6802              1678.3620              3776.8125
 Red. masses --      1.1353                12.9690                 1.0674
 Frc consts  --      1.2974                21.5242                 8.9708
 IR Inten    --    155.2056               139.0063                83.4008

 - Thermochemistry -
 -------------------
 Temperature   298.150 Kelvin.  Pressure   1.00000 Atm.
 Atom     1 has atomic number  1 and mass   1.00783

 Molecular mass:    62.99564 amu.
 Principal axes and moments of inertia in atomic units:
                           1         2         3
     Eigenvalues --    32.56087 356.94728 389.50815
           X            0.80312  -0.59582   0.00000
           Y            0.59582   0.80312   0.00000
           Z            0.00000  -0.00000   1.00000
 This molecule is an asymmetric top.
 Rotational symmetry number  1.
 Rotational temperatures (Kelvin)      2.66006     0.24265     0.22237
 Rotational constants (GHZ):          55.42669     5.05604     4.63338
    1 imaginary frequencies ignored.
 Zero-point vibrational energy      57829.1 (Joules/Mol)
                                   13.82149 (Kcal/Mol)
 Warning -- explicit consideration of   3 degrees of freedom as
           vibrations may cause significant error
 Vibrational temperatures:    318.56   485.11   658.19  1144.29  1451.80
          (Kelvin)           2003.76  2414.79  5433.99

 Zero-point correction=                           0.022026 (Hartree/Particle)
 Thermal correction to Energy=                    0.026145
 Thermal correction to Enthalpy=                  0.027089
 Thermal correction to Gibbs Free Energy=        -0.004100
 Sum of electronic and zero-point Energies=           -280.424529
 Sum of electronic and thermal Energies=              -280.420409
 Sum of electronic and thermal Enthalpies=            -280.419465
 Sum of electronic and thermal Free Energies=         -280.450654

                     E (Thermal)             CV                S
                      KCal/Mol        Cal/Mol-Kelvin    Cal/Mol-Kelvin
 Total                   16.406             11.890             65.643
 Electronic               0.000              0.000              0.000
 Translational            0.889              2.981             38.341
 Rotational               0.889              2.981             23.030
 Vibrational             14.629              5.928              4.272
 Vibration     1          0.648              1.808              1.948
 Vibration     2          0.718              1.601              1.226
 Vibration     3          0.816              1.344              0.774

                       ! Non-Optimized Parameters !

 1\1\GINC-N2126\Freq\RMP2-FC\Aug-CC-pVTZ\H1N1O3\CGAVINH\21-Feb-2022\1\\
 #p freq mp2/aug-cc-pvtz density=current\\title\\0,1\H\O,1,r1\O,2,r2,1,
 a1\N,3,r3,2,a2,1,d1,0\O,4,r4,3,a3,2,d2,0\\r1=0.96897556\r2=1.43587143\
 r3=1.45878406\r4=1.17072885\a1=97.59494903\a2=102.29752444\a3=109.0695
 5123\d1=180.\d2=180.\\Version=ES64L-G16RevB.01\State=1-A'\HF=-279.5030
 505\MP2=-280.4465545\RMSD=3.619e-09\RMSF=3.492e-03\ZeroPoint=0.0220259
 \Thermal=0.026145\Dipole=-0.1488325,0.,-0.5579377\DipoleDeriv=0.267076
 7,0.,0.0493846,0.,0.3563783,0.,0.0791111,0.,0.2779352,-0.3298636,0.,-0

 Normal termination of Gaussian 16 at Mon Feb 21 20:16:04 2022.
