 Gaussian 16, Revision B.01,
 Gaussian 16:  ES64L-G16RevB.01 20-Dec-2017

 ---------------------------------------
 #p freq mp2/aug-cc-pvtz density=current
 ---------------------------------------

 -----
 title
 -----
 Symbolic Z-matrix:
 Charge =  0 Multiplicity = 1

                         Standard orientation:
 ---------------------------------------------------------------------
 Center     Atomic      Atomic             Coordinates (Angstroms)
 Number     Number       Type             X           Y           Z
 ---------------------------------------------------------------------
      1          1           0        1.552109    1.671868    0.000000
      2          8           0        1.454205    0.707851    0.000000
      3          8           0        0.000000    0.662253    0.000000
      4          7           0       -0.261629   -0.749157   -0.000000
      5          8           0       -1.419293   -0.923575   -0.000000
 ---------------------------------------------------------------------

 SCF Done:  E(RHF) =  -279.503789915     A.U. after   14 cycles
 E2 =    -0.9428276984D+00 EUMP2 =    -0.28044661761334D+03
 E2 =    -0.9428276984D+00 EUMP2 =    -0.28044661761334D+03

 The electronic state is 1-A'.
 Alpha  occ. eigenvalues --  -20.69483 -20.67872 -20.66283 -15.80910  -1.62566
 Alpha  occ. eigenvalues --   -1.49889  -1.26147  -0.94640  -0.77470  -0.76204
 Alpha  occ. eigenvalues --   -0.71601  -0.67817  -0.61922  -0.59062  -0.48756
 Alpha  occ. eigenvalues --   -0.47334
 Alpha virt. eigenvalues --    0.02899   0.07469   0.08635   0.10197   0.13375
 Alpha virt. eigenvalues --    0.13406   0.14361   0.15407   0.17774   0.19420
 Alpha virt. eigenvalues --    0.19993   0.20918   0.22010   0.23438   0.23767

 Mulliken charges:
               1
     1  H    0.250446
     2  O   -0.199997
     3  O   -0.131783
     4  N    0.284750
     5  O   -0.203416
 Sum of Mulliken charges =  -0.00000

 Dipole moment (field-independent basis, Debye):
    X=              0.6150    Y=              1.4938    Z=              0.0000  Tot=              1.6154
 Quadrupole moment (field-independent basis, Debye-Ang):
   XX=            -22.5094   YY=            -18.7141   ZZ=            -21.9767
   XY=              3.2118   XZ=              0.0000   YZ=             -0.0000

  Exact polarizability:  34.022   9.340  29.774  -0.000   0.000  17.850
 Approx polarizability:  28.903   4.955  23.013  -0.000   0.000  15.486

 ******    1 imaginary frequencies (negative Signs) ******

                      1                      2                      3
                     A"                     A"                     A'
 Frequencies --   -262.9415               218.9435               348.9168
 Red. masses --      1.1448                10.1788                 8.6614
 Frc consts  --      0.0466                 0.2875                 0.6213
 IR Inten    --    124.1184                 0.9037                 2.5958

                      4                      5                      6
                     A'                     A'                     A'
 Frequencies --    498.9710               803.3693               970.8382
 Red. masses --     12.2804                12.5835                15.2559
 Frc consts  --      1.8014                 4.7850                 8.4719
 IR Inten    --    172.6950               191.6459                25.5157

                      7                      8                      9
                     A'                     A'                     A'
 Frequencies --   1375.7611              1688.4205              3779.1972
 Red. masses --      1.1372                13.1285                 1.0675
 Frc consts  --      1.2681                22.0510                 8.9832
 IR Inten    --    157.2315               129.7031                82.0991

 - Thermochemistry -
 -------------------
 Temperature   298.150 Kelvin.  Pressure   1.00000 Atm.
 Atom     1 has atomic number  1 and mass   1.00783

 Molecular mass:    62.99564 amu.
 Principal axes and moments of inertia in atomic units:
                           1         2         3
     Eigenvalues --    32.24357 355.92523 388.16880
           X            0.81607  -0.57795   0.00000
           Y            0.57795   0.81607   0.00000
           Z            0.00000  -0.00000   1.00000
 This molecule is an asymmetric top.
 Rotational symmetry number  1.
 Rotational temperatures (Kelvin)      2.68624     0.24335     0.22313
 Rotational constants (GHZ):          55.97213     5.07056     4.64937
    1 imaginary frequencies ignored.
 Zero-point vibrational energy      57925.7 (Joules/Mol)
                                   13.84457 (Kcal/Mol)
 Warning -- explicit consideration of   3 degrees of freedom as
           vibrations may cause significant error
 Vibrational temperatures:    315.01   502.01   717.91  1155.87  1396.82
          (Kelvin)           1979.41  2429.26  5437.42

 Zero-point correction=                           0.022063 (Hartree/Particle)
 Thermal correction to Energy=                    0.026143
 Thermal correction to Enthalpy=                  0.027088
 Thermal correction to Gibbs Free Energy=        -0.004029
 Sum of electronic and zero-point Energies=           -280.424555
 Sum of electronic and thermal Energies=              -280.420474
 Sum of electronic and thermal Enthalpies=            -280.419530
 Sum of electronic and thermal Free Energies=         -280.450646

                     E (Thermal)             CV                S
                      KCal/Mol        Cal/Mol-Kelvin    Cal/Mol-Kelvin
 Total                   16.405             11.812             65.489
 Electronic               0.000              0.000              0.000
 Translational            0.889              2.981             38.341
 Rotational               0.889              2.981             23.014
 Vibrational             14.628              5.851              4.135
 Vibration     1          0.647              1.812              1.968
 Vibration     2          0.726              1.577              1.171
 Vibration     3          0.854              1.252              0.661

                       ! Non-Optimized Parameters !

 1\1\GINC-N2124\Freq\RMP2-FC\Aug-CC-pVTZ\H1N1O3\CGAVINH\21-Feb-2022\1\\
 #p freq mp2/aug-cc-pvtz density=current\\title\\0,1\H\O,1,r1\O,2,r2,1,
 a1\N,3,r3,2,a2,1,d1,0\O,4,r4,3,a3,2,d2,0\\r1=0.96897556\r2=1.45491931\
 r3=1.43545413\r4=1.17072885\a1=97.59494903\a2=102.29752444\a3=109.0695
 5123\d1=180.\d2=180.\\Version=ES64L-G16RevB.01\State=1-A'\HF=-279.5037
 899\MP2=-280.4466176\RMSD=3.494e-09\RMSF=2.771e-03\ZeroPoint=0.0220627
 \Thermal=0.0261434\Dipole=-0.1813383,0.,-0.609148\DipoleDeriv=0.268356
 2,0.,0.0504661,0.,0.3562353,0.,0.0820694,0.,0.2753283,-0.3241555,0.,-0

 Normal termination of Gaussian 16 at Mon Feb 21 20:24:33 2022.
