 Gaussian 16, Revision B.01,
 Gaussian 16:  ES64L-G16RevB.01 20-Dec-2017

 ---------------------------------------
 #p freq mp2/aug-cc-pvtz density=current
 ---------------------------------------

 -----
 title
 -----
 Symbolic Z-matrix:
 Charge =  0 Multiplicity = 1

                         Standard orientation:
 ---------------------------------------------------------------------
 Center     Atomic      Atomic             Coordinates (Angstroms)
 Number     Number       Type             X           Y           Z
 ---------------------------------------------------------------------
      1          1           0       -2.237816    0.422219    0.172626
      2          8           0       -1.599399   -0.282105   -0.015165
      3          8           0       -0.400160    0.541662   -0.020024
      4          7           0        0.662864   -0.456964    0.007837
      5          8           0        1.699279    0.087509    0.006753
 ---------------------------------------------------------------------

 SCF Done:  E(RHF) =  -279.501819469     A.U. after   16 cycles
 E2 =    -0.9450938906D+00 EUMP2 =    -0.28044691335981D+03
 E2 =    -0.9450938906D+00 EUMP2 =    -0.28044691335981D+03

 The electronic state is 1-A.
 Alpha  occ. eigenvalues --  -20.69106 -20.68426 -20.66015 -15.81269  -1.62403
 Alpha  occ. eigenvalues --   -1.49584  -1.25444  -0.94809  -0.77248  -0.75951
 Alpha  occ. eigenvalues --   -0.71299  -0.67874  -0.61982  -0.58874  -0.48714
 Alpha  occ. eigenvalues --   -0.47162
 Alpha virt. eigenvalues --    0.02958   0.07164   0.08592   0.10176   0.13229
 Alpha virt. eigenvalues --    0.13506   0.14388   0.15444   0.17810   0.19409
 Alpha virt. eigenvalues --    0.19918   0.20665   0.22080   0.23535   0.23724

 Mulliken charges:
               1
     1  H    0.250070
     2  O   -0.201734
     3  O   -0.147005
     4  N    0.292049
     5  O   -0.193379
 Sum of Mulliken charges =  -0.00000

 Dipole moment (field-independent basis, Debye):
    X=             -1.2002    Y=              0.7674    Z=              0.3275  Tot=              1.4617
 Quadrupole moment (field-independent basis, Debye-Ang):
   XX=            -18.1016   YY=            -23.1260   ZZ=            -21.9252
   XY=             -2.7133   XZ=             -0.8614   YZ=              0.2616

  Exact polarizability:  41.683  -0.949  22.504  -0.170   0.032  17.973
 Approx polarizability:  31.923   1.158  20.547  -0.147   0.122  15.582

 ******    1 imaginary frequencies (negative Signs) ******

                      1                      2                      3
                      A                      A                      A
 Frequencies --   -256.6554               227.9613               343.4474
 Red. masses --      1.1420                10.6375                 8.6575
 Frc consts  --      0.0443                 0.3257                 0.6017
 IR Inten    --    125.7812                 0.8767                 4.9909

                      4                      5                      6
                      A                      A                      A
 Frequencies --    453.1546               786.1748               965.9512
 Red. masses --     12.1315                12.9574                15.3221
 Frc consts  --      1.4678                 4.7185                 8.4232
 IR Inten    --    195.6888               169.2156                24.3932

                      7                      8                      9
                      A                      A                      A
 Frequencies --   1371.9327              1677.2201              3777.9968
 Red. masses --      1.1312                13.2750                 1.0676
 Frc consts  --      1.2545                22.0021                 8.9780
 IR Inten    --    149.5448               141.2524                81.4589

 - Thermochemistry -
 -------------------
 Temperature   298.150 Kelvin.  Pressure   1.00000 Atm.
 Atom     1 has atomic number  1 and mass   1.00783

 Molecular mass:    62.99564 amu.
 Principal axes and moments of inertia in atomic units:
                           1         2         3
     Eigenvalues --    32.92201 360.08922 392.73201
           X            0.99994  -0.01033  -0.00394
           Y            0.01036   0.99991   0.00844
           Z            0.00385  -0.00848   0.99996
 This molecule is an asymmetric top.
 Rotational symmetry number  1.
 Rotational temperatures (Kelvin)      2.63088     0.24053     0.22054
 Rotational constants (GHZ):          54.81868     5.01193     4.59535
    1 imaginary frequencies ignored.
 Zero-point vibrational energy      57443.7 (Joules/Mol)
                                   13.72938 (Kcal/Mol)
 Warning -- explicit consideration of   3 degrees of freedom as
           vibrations may cause significant error
 Vibrational temperatures:    327.99   494.14   651.99  1131.13  1389.79
          (Kelvin)           1973.91  2413.15  5435.69

 Zero-point correction=                           0.021879 (Hartree/Particle)
 Thermal correction to Energy=                    0.025995
 Thermal correction to Enthalpy=                  0.026939
 Thermal correction to Gibbs Free Energy=        -0.004243
 Sum of electronic and zero-point Energies=           -280.425034
 Sum of electronic and thermal Energies=              -280.420919
 Sum of electronic and thermal Enthalpies=            -280.419974
 Sum of electronic and thermal Free Energies=         -280.451156

                     E (Thermal)             CV                S
                      KCal/Mol        Cal/Mol-Kelvin    Cal/Mol-Kelvin
 Total                   16.312             11.948             65.628
 Electronic               0.000              0.000              0.000
 Translational            0.889              2.981             38.341
 Rotational               0.889              2.981             23.058
 Vibrational             14.535              5.987              4.229
 Vibration     1          0.651              1.798              1.895
 Vibration     2          0.722              1.589              1.196
 Vibration     3          0.812              1.354              0.786

                       ! Non-Optimized Parameters !

 1\1\GINC-N2126\Freq\RMP2-FC\Aug-CC-pVTZ\H1N1O3\CGAVINH\21-Feb-2022\1\\
 #p freq mp2/aug-cc-pvtz density=current\\title\\0,1\H\O,1,r1\O,2,r2,1,
 a1\N,3,r3,2,a2,1,d1,0\O,4,r4,3,a3,2,d2,0\\r1=0.96897556\r2=1.45491931\
 r3=1.45878406\r4=1.17072885\a1=97.59494903\a2=102.29752444\a3=109.0695
 5123\d1=167.58917284\d2=180.\\Version=ES64L-G16RevB.01\State=1-A\HF=-2
 79.5018195\MP2=-280.4469134\RMSD=5.063e-09\RMSF=5.807e-04\ZeroPoint=0.
 0218792\Thermal=0.0259948\Dipole=-0.1465531,0.0249452,-0.5555148\Dipol
 eDeriv=0.265505,-0.0018791,0.0479387,-0.0021172,0.3539942,-0.0019819,0

 Normal termination of Gaussian 16 at Mon Feb 21 21:09:23 2022.
