 Gaussian 16, Revision B.01,
 Gaussian 16:  ES64L-G16RevB.01 20-Dec-2017

 ---------------------------------------
 #p freq mp2/aug-cc-pvtz density=current
 ---------------------------------------

 -----
 title
 -----
 Symbolic Z-matrix:
 Charge =  0 Multiplicity = 1

                         Standard orientation:
 ---------------------------------------------------------------------
 Center     Atomic      Atomic             Coordinates (Angstroms)
 Number     Number       Type             X           Y           Z
 ---------------------------------------------------------------------
      1          1           0        1.550651    1.701543    0.000000
      2          8           0        1.454067    0.722348    0.000000
      3          8           0        0.000000    0.672543    0.000000
      4          7           0       -0.261730   -0.762569    0.000000
      5          8           0       -1.418884   -0.940337    0.000000
 ---------------------------------------------------------------------

 SCF Done:  E(RHF) =  -279.500772420     A.U. after   14 cycles
 E2 =    -0.9457640963D+00 EUMP2 =    -0.28044653651588D+03
 E2 =    -0.9457640963D+00 EUMP2 =    -0.28044653651588D+03

 The electronic state is 1-A'.
 Alpha  occ. eigenvalues --  -20.69049 -20.68401 -20.66112 -15.81253  -1.62369
 Alpha  occ. eigenvalues --   -1.49395  -1.25153  -0.94772  -0.77162  -0.75795
 Alpha  occ. eigenvalues --   -0.71144  -0.67704  -0.62002  -0.58871  -0.48472
 Alpha  occ. eigenvalues --   -0.47209
 Alpha virt. eigenvalues --    0.02934   0.07190   0.08601   0.10176   0.13396
 Alpha virt. eigenvalues --    0.13407   0.14341   0.15399   0.17846   0.19421
 Alpha virt. eigenvalues --    0.19986   0.20636   0.22087   0.23583   0.23752

 Mulliken charges:
               1
     1  H    0.262011
     2  O   -0.213370
     3  O   -0.146148
     4  N    0.290736
     5  O   -0.193229
 Sum of Mulliken charges =  -0.00000

 Dipole moment (field-independent basis, Debye):
    X=              0.5161    Y=              1.3798    Z=             -0.0000  Tot=              1.4732
 Quadrupole moment (field-independent basis, Debye-Ang):
   XX=            -22.4757   YY=            -18.5572   ZZ=            -22.0291
   XY=              3.2855   XZ=             -0.0000   YZ=              0.0000

  Exact polarizability:  34.071   9.543  30.464   0.000  -0.000  17.964
 Approx polarizability:  29.048   5.125  23.679  -0.000  -0.000  15.546

                      1                      2                      3
                     A"                     A'                     A"
 Frequencies --    223.6123               352.3900               354.4047
 Red. masses --     14.9277                 9.1540                 1.1053
 Frc consts  --      0.4398                 0.6697                 0.0818
 IR Inten    --      2.4451                 3.5907               121.4528

                      4                      5                      6
                     A'                     A'                     A'
 Frequencies --    451.4127               789.7233               967.9415
 Red. masses --     12.3318                13.4430                15.0931
 Frc consts  --      1.4806                 4.9397                 8.3316
 IR Inten    --    200.6584               179.6850                20.2584

                      7                      8                      9
                     A'                     A'                     A'
 Frequencies --   1414.7669              1677.6581              3588.7750
 Red. masses --      1.1256                12.8439                 1.0676
 Frc consts  --      1.3274                21.2988                 8.1011
 IR Inten    --    151.8546               137.4746                80.6397

 - Thermochemistry -
 -------------------
 Temperature   298.150 Kelvin.  Pressure   1.00000 Atm.
 Atom     1 has atomic number  1 and mass   1.00783

 Molecular mass:    62.99564 amu.
 Principal axes and moments of inertia in atomic units:
                           1         2         3
     Eigenvalues --    32.87835 360.30981 393.18816
           X            0.81000  -0.58643   0.00000
           Y            0.58643   0.81000   0.00000
           Z            0.00000   0.00000   1.00000
 This molecule is an asymmetric top.
 Rotational symmetry number  1.
 Rotational temperatures (Kelvin)      2.63438     0.24039     0.22029
 Rotational constants (GHZ):          54.89148     5.00886     4.59002
 Zero-point vibrational energy      58740.7 (Joules/Mol)
                                   14.03937 (Kcal/Mol)
 Warning -- explicit consideration of   4 degrees of freedom as
           vibrations may cause significant error
 Vibrational temperatures:    321.73   507.01   509.91   649.48  1136.24
          (Kelvin)           1392.65  2035.53  2413.78  5163.45

 Zero-point correction=                           0.022373 (Hartree/Particle)
 Thermal correction to Energy=                    0.026841
 Thermal correction to Enthalpy=                  0.027785
 Thermal correction to Gibbs Free Energy=        -0.003939
 Sum of electronic and zero-point Energies=           -280.424163
 Sum of electronic and thermal Energies=              -280.419696
 Sum of electronic and thermal Enthalpies=            -280.418752
 Sum of electronic and thermal Free Energies=         -280.450475

                     E (Thermal)             CV                S
                      KCal/Mol        Cal/Mol-Kelvin    Cal/Mol-Kelvin
 Total                   16.843             13.483             66.767
 Electronic               0.000              0.000              0.000
 Translational            0.889              2.981             38.341
 Rotational               0.889              2.981             23.059
 Vibrational             15.065              7.521              5.368
 Vibration     1          0.649              1.805              1.930
 Vibration     2          0.729              1.570              1.155
 Vibration     3          0.730              1.566              1.147
 Vibration     4          0.810              1.358              0.792

                       ! Non-Optimized Parameters !

 1\1\GINC-N2128\Freq\RMP2-FC\Aug-CC-pVTZ\H1N1O3\CGAVINH\21-Feb-2022\1\\
 #p freq mp2/aug-cc-pvtz density=current\\title\\0,1\H\O,1,r1\O,2,r2,1,
 a1\N,3,r3,2,a2,1,d1,0\O,4,r4,3,a3,2,d2,0\\r1=0.98394625\r2=1.45491931\
 r3=1.45878406\r4=1.17072885\a1=97.59494903\a2=102.29752444\a3=109.0695
 5123\d1=180.\d2=180.\\Version=ES64L-G16RevB.01\State=1-A'\HF=-279.5007
 724\MP2=-280.4465365\RMSD=3.793e-09\RMSF=4.998e-03\ZeroPoint=0.0223732
 \Thermal=0.0268405\Dipole=-0.1487711,0.,-0.5601649\DipoleDeriv=0.26815
 81,0.,0.0478364,0.,0.3534962,0.,0.0792055,0.,0.2733768,-0.3280136,0.,-

 Normal termination of Gaussian 16 at Mon Feb 21 20:03:04 2022.
