 Gaussian 16, Revision B.01,
 Gaussian 16:  ES64L-G16RevB.01 20-Dec-2017

 ---------------------------------------
 #p freq mp2/aug-cc-pvtz density=current
 ---------------------------------------

 -----
 title
 -----
 Symbolic Z-matrix:
 Charge =  0 Multiplicity = 1

                         Standard orientation:
 ---------------------------------------------------------------------
 Center     Atomic      Atomic             Coordinates (Angstroms)
 Number     Number       Type             X           Y           Z
 ---------------------------------------------------------------------
      1          1           0        1.503705    1.736902   -0.000000
      2          8           0        1.450535    0.769387   -0.000000
      3          8           0       -0.000000    0.656516   -0.000000
      4          7           0       -0.257030   -0.779446    0.000000
      5          8           0       -1.413596   -0.961001    0.000000
 ---------------------------------------------------------------------

 SCF Done:  E(RHF) =  -279.501607365     A.U. after   14 cycles
 E2 =    -0.9449054051D+00 EUMP2 =    -0.28044651277044D+03
 E2 =    -0.9449054051D+00 EUMP2 =    -0.28044651277044D+03

 The electronic state is 1-A'.
 Alpha  occ. eigenvalues --  -20.69016 -20.68482 -20.66075 -15.81355  -1.62396
 Alpha  occ. eigenvalues --   -1.49508  -1.25547  -0.94765  -0.77107  -0.76008
 Alpha  occ. eigenvalues --   -0.71145  -0.68271  -0.62105  -0.58768  -0.48501
 Alpha  occ. eigenvalues --   -0.47203
 Alpha virt. eigenvalues --    0.02964   0.07140   0.08599   0.10233   0.13368
 Alpha virt. eigenvalues --    0.13370   0.14378   0.15372   0.17835   0.19438
 Alpha virt. eigenvalues --    0.20005   0.20591   0.22060   0.23507   0.23719

 Mulliken charges:
               1
     1  H    0.253268
     2  O   -0.206125
     3  O   -0.143883
     4  N    0.287729
     5  O   -0.190989
 Sum of Mulliken charges =  -0.00000

 Dipole moment (field-independent basis, Debye):
    X=              0.4491    Y=              1.3768    Z=             -0.0000  Tot=              1.4482
 Quadrupole moment (field-independent basis, Debye-Ang):
   XX=            -22.7114   YY=            -18.3830   ZZ=            -22.0148
   XY=              3.1670   XZ=              0.0000   YZ=              0.0000

  Exact polarizability:  33.956   9.782  30.726  -0.000  -0.000  17.954
 Approx polarizability:  28.971   5.397  23.682  -0.000  -0.000  15.532

 ******    1 imaginary frequencies (negative Signs) ******

                      1                      2                      3
                     A"                     A"                     A'
 Frequencies --   -283.5723               233.7133               332.4766
 Red. masses --      1.1412                10.6684                 8.9674
 Frc consts  --      0.0541                 0.3433                 0.5840
 IR Inten    --    124.4416                 0.7880                 2.6403

                      4                      5                      6
                     A'                     A'                     A'
 Frequencies --    435.7563               784.0844               967.9456
 Red. masses --     11.5201                12.6552                15.1868
 Frc consts  --      1.2888                 4.5840                 8.3834
 IR Inten    --    201.3660               173.4897                24.9174

                      7                      8                      9
                     A'                     A'                     A'
 Frequencies --   1371.8577              1675.9708              3778.6814
 Red. masses --      1.1370                13.2714                 1.0676
 Frc consts  --      1.2608                21.9634                 8.9816
 IR Inten    --    155.8456               140.0847                86.6603

 - Thermochemistry -
 -------------------
 Temperature   298.150 Kelvin.  Pressure   1.00000 Atm.
 Atom     1 has atomic number  1 and mass   1.00783

 Molecular mass:    62.99564 amu.
 Principal axes and moments of inertia in atomic units:
                           1         2         3
     Eigenvalues --    31.68088 366.20330 397.88417
           X            0.79974  -0.60035   0.00000
           Y            0.60035   0.79974   0.00000
           Z            0.00000  -0.00000   1.00000
 This molecule is an asymmetric top.
 Rotational symmetry number  1.
 Rotational temperatures (Kelvin)      2.73395     0.23652     0.21769
 Rotational constants (GHZ):          56.96626     4.92825     4.53585
    1 imaginary frequencies ignored.
 Zero-point vibrational energy      57304.0 (Joules/Mol)
                                   13.69599 (Kcal/Mol)
 Warning -- explicit consideration of   3 degrees of freedom as
           vibrations may cause significant error
 Vibrational temperatures:    336.26   478.36   626.96  1128.12  1392.66
          (Kelvin)           1973.80  2411.35  5436.68

 Zero-point correction=                           0.021826 (Hartree/Particle)
 Thermal correction to Energy=                    0.025961
 Thermal correction to Enthalpy=                  0.026905
 Thermal correction to Gibbs Free Energy=        -0.004302
 Sum of electronic and zero-point Energies=           -280.424687
 Sum of electronic and thermal Energies=              -280.420552
 Sum of electronic and thermal Enthalpies=            -280.419608
 Sum of electronic and thermal Free Energies=         -280.450815

                     E (Thermal)             CV                S
                      KCal/Mol        Cal/Mol-Kelvin    Cal/Mol-Kelvin
 Total                   16.291             12.001             65.681
 Electronic               0.000              0.000              0.000
 Translational            0.889              2.981             38.341
 Rotational               0.889              2.981             23.050
 Vibrational             14.513              6.040              4.291
 Vibration     1          0.654              1.789              1.850
 Vibration     2          0.714              1.611              1.248
 Vibration     3          0.796              1.392              0.840

                       ! Non-Optimized Parameters !

 1\1\GINC-N2129\Freq\RMP2-FC\Aug-CC-pVTZ\H1N1O3\CGAVINH\21-Feb-2022\1\\
 #p freq mp2/aug-cc-pvtz density=current\\title\\0,1\H\O,1,r1\O,2,r2,1,
 a1\N,3,r3,2,a2,1,d1,0\O,4,r4,3,a3,2,d2,0\\r1=0.96897556\r2=1.45491931\
 r3=1.45878406\r4=1.17072885\a1=97.59494903\a2=104.59760874\a3=109.0695
 5123\d1=180.\d2=180.\\Version=ES64L-G16RevB.01\State=1-A'\HF=-279.5016
 074\MP2=-280.4465128\RMSD=3.816e-09\RMSF=2.365e-03\ZeroPoint=0.021826\
 Thermal=0.025961\Dipole=-0.1467036,0.,-0.5505637\DipoleDeriv=0.2633272
 ,0.,0.0454045,0.,0.3556991,0.,0.0877318,0.,0.2805162,-0.3452885,0.,-0.

 Normal termination of Gaussian 16 at Mon Feb 21 20:47:17 2022.
