 Gaussian 16, Revision B.01,
 Gaussian 16:  ES64L-G16RevB.01 20-Dec-2017

 ---------------------------------------
 #p freq mp2/aug-cc-pvtz density=current
 ---------------------------------------

 -----
 title
 -----
 Symbolic Z-matrix:
 Charge =  0 Multiplicity = 1

                         Standard orientation:
 ---------------------------------------------------------------------
 Center     Atomic      Atomic             Coordinates (Angstroms)
 Number     Number       Type             X           Y           Z
 ---------------------------------------------------------------------
      1          1           0        1.558690    1.683004    0.000000
      2          8           0        1.460929    0.718973    0.000000
      3          8           0        0.000000    0.672947    0.000000
      4          7           0       -0.265668   -0.761442    0.000000
      5          8           0       -1.423305   -0.936033    0.000000
 ---------------------------------------------------------------------

 SCF Done:  E(RHF) =  -279.501109695     A.U. after   14 cycles
 E2 =    -0.9455994397D+00 EUMP2 =    -0.28044670913483D+03
 E2 =    -0.9455994397D+00 EUMP2 =    -0.28044670913483D+03

 The electronic state is 1-A'.
 Alpha  occ. eigenvalues --  -20.69126 -20.68441 -20.66056 -15.81297  -1.62384
 Alpha  occ. eigenvalues --   -1.49309  -1.25561  -0.94797  -0.77208  -0.75864
 Alpha  occ. eigenvalues --   -0.71119  -0.67937  -0.61982  -0.58850  -0.48643
 Alpha  occ. eigenvalues --   -0.47265
 Alpha virt. eigenvalues --    0.02961   0.07166   0.08577   0.10169   0.13362
 Alpha virt. eigenvalues --    0.13396   0.14404   0.15450   0.17827   0.19424
 Alpha virt. eigenvalues --    0.19983   0.20629   0.21978   0.23278   0.23732

 Mulliken charges:
               1
     1  H    0.250645
     2  O   -0.202388
     3  O   -0.147524
     4  N    0.292300
     5  O   -0.193034
 Sum of Mulliken charges =  -0.00000

 Dipole moment (field-independent basis, Debye):
    X=              0.5095    Y=              1.3547    Z=              0.0000  Tot=              1.4474
 Quadrupole moment (field-independent basis, Debye-Ang):
   XX=            -22.4320   YY=            -18.6405   ZZ=            -22.0197
   XY=              3.2772   XZ=              0.0000   YZ=             -0.0000

  Exact polarizability:  34.166   9.483  30.225   0.000   0.000  17.950
 Approx polarizability:  29.205   5.100  23.506  -0.000  -0.000  15.533

 ******    1 imaginary frequencies (negative Signs) ******

                      1                      2                      3
                     A"                     A"                     A'
 Frequencies --   -271.7388               231.2921               342.3306
 Red. masses --      1.1400                10.4269                 8.6566
 Frc consts  --      0.0496                 0.3286                 0.5977
 IR Inten    --    124.4916                 0.8340                 3.6829

                      4                      5                      6
                     A'                     A'                     A'
 Frequencies --    449.6683               781.0460               953.7637
 Red. masses --     12.2565                13.0080                15.1984
 Frc consts  --      1.4602                 4.6754                 8.1457
 IR Inten    --    199.5957               168.1104                26.3669

                      7                      8                      9
                     A'                     A'                     A'
 Frequencies --   1363.6895              1676.9913              3779.3453
 Red. masses --      1.1330                13.2837                 1.0676
 Frc consts  --      1.2414                22.0105                 8.9844
 IR Inten    --    152.3303               140.9061                82.2114

 - Thermochemistry -
 -------------------
 Temperature   298.150 Kelvin.  Pressure   1.00000 Atm.
 Atom     1 has atomic number  1 and mass   1.00783

 Molecular mass:    62.99564 amu.
 Principal axes and moments of inertia in atomic units:
                           1         2         3
     Eigenvalues --    32.93911 361.28546 394.22457
           X            0.81261  -0.58281   0.00000
           Y            0.58281   0.81261   0.00000
           Z            0.00000   0.00000   1.00000
 This molecule is an asymmetric top.
 Rotational symmetry number  1.
 Rotational temperatures (Kelvin)      2.62952     0.23974     0.21971
 Rotational constants (GHZ):          54.79022     4.99533     4.57795
    1 imaginary frequencies ignored.
 Zero-point vibrational energy      57289.9 (Joules/Mol)
                                   13.69262 (Kcal/Mol)
 Warning -- explicit consideration of   3 degrees of freedom as
           vibrations may cause significant error
 Vibrational temperatures:    332.78   492.54   646.97  1123.75  1372.25
          (Kelvin)           1962.05  2412.82  5437.63

 Zero-point correction=                           0.021821 (Hartree/Particle)
 Thermal correction to Energy=                    0.025939
 Thermal correction to Enthalpy=                  0.026884
 Thermal correction to Gibbs Free Energy=        -0.004302
 Sum of electronic and zero-point Energies=           -280.424889
 Sum of electronic and thermal Energies=              -280.420770
 Sum of electronic and thermal Enthalpies=            -280.419826
 Sum of electronic and thermal Free Energies=         -280.451011

                     E (Thermal)             CV                S
                      KCal/Mol        Cal/Mol-Kelvin    Cal/Mol-Kelvin
 Total                   16.277             11.980             65.636
 Electronic               0.000              0.000              0.000
 Translational            0.889              2.981             38.341
 Rotational               0.889              2.981             23.066
 Vibrational             14.500              6.018              4.229
 Vibration     1          0.653              1.793              1.869
 Vibration     2          0.721              1.591              1.201
 Vibration     3          0.809              1.362              0.797

                       ! Non-Optimized Parameters !

 1\1\GINC-N2108\Freq\RMP2-FC\Aug-CC-pVTZ\H1N1O3\CGAVINH\21-Feb-2022\1\\
 #p freq mp2/aug-cc-pvtz density=current\\title\\0,1\H\O,1,r1\O,2,r2,1,
 a1\N,3,r3,2,a2,1,d1,0\O,4,r4,3,a3,2,d2,0\\r1=0.96897556\r2=1.46165375\
 r3=1.45878406\r4=1.17072885\a1=97.59494903\a2=102.29752444\a3=109.0695
 5123\d1=180.\d2=180.\\Version=ES64L-G16RevB.01\State=1-A'\HF=-279.5011
 097\MP2=-280.4467091\RMSD=3.857e-09\RMSF=1.252e-03\ZeroPoint=0.0218206
 \Thermal=0.0259394\Dipole=-0.1456608,0.,-0.5505028\DipoleDeriv=0.26619
 65,0.,0.0478996,0.,0.3552643,0.,0.083122,0.,0.2747086,-0.3278272,0.,-0

 Normal termination of Gaussian 16 at Mon Feb 21 20:10:41 2022.
