 Gaussian 16, Revision B.01,
 Gaussian 16:  ES64L-G16RevB.01 20-Dec-2017

 ---------------------------------------
 #p freq mp2/aug-cc-pvtz density=current
 ---------------------------------------

 -----
 title
 -----
 Symbolic Z-matrix:
 Charge =  0 Multiplicity = 1

                         Standard orientation:
 ---------------------------------------------------------------------
 Center     Atomic      Atomic             Coordinates (Angstroms)
 Number     Number       Type             X           Y           Z
 ---------------------------------------------------------------------
      1          1           0        1.548087    1.677664    0.000000
      2          8           0        1.454061    0.723290    0.000000
      3          8           0       -0.000000    0.673319    0.000000
      4          7           0       -0.261567   -0.761823   -0.000000
      5          8           0       -1.418701   -0.939722   -0.000000
 ---------------------------------------------------------------------

 SCF Done:  E(RHF) =  -279.502070768     A.U. after   14 cycles
 E2 =    -0.9445707917D+00 EUMP2 =    -0.28044664156002D+03
 E2 =    -0.9445707917D+00 EUMP2 =    -0.28044664156002D+03

 The electronic state is 1-A'.
 Alpha  occ. eigenvalues --  -20.69115 -20.68449 -20.65919 -15.81304  -1.62427
 Alpha  occ. eigenvalues --   -1.49700  -1.25638  -0.94830  -0.77364  -0.75998
 Alpha  occ. eigenvalues --   -0.71203  -0.68089  -0.62076  -0.58991  -0.48557
 Alpha  occ. eigenvalues --   -0.47277
 Alpha virt. eigenvalues --    0.02981   0.07152   0.08590   0.10169   0.13388
 Alpha virt. eigenvalues --    0.13393   0.14448   0.15491   0.17811   0.19415
 Alpha virt. eigenvalues --    0.19977   0.20637   0.22078   0.23514   0.23729

 Mulliken charges:
               1
     1  H    0.241739
     2  O   -0.193085
     3  O   -0.147806
     4  N    0.292418
     5  O   -0.193266
 Sum of Mulliken charges =  -0.00000

 Dipole moment (field-independent basis, Debye):
    X=              0.5029    Y=              1.3480    Z=              0.0000  Tot=              1.4388
 Quadrupole moment (field-independent basis, Debye-Ang):
   XX=            -22.4646   YY=            -18.6544   ZZ=            -21.9977
   XY=              3.2362   XZ=             -0.0000   YZ=             -0.0000

  Exact polarizability:  33.955   9.425  30.115   0.000   0.000  17.903
 Approx polarizability:  28.980   5.092  23.418   0.000   0.000  15.506

 ******    1 imaginary frequencies (negative Signs) ******

                      1                      2                      3
                     A"                     A"                     A'
 Frequencies --   -467.2260               228.2803               331.0760
 Red. masses --      1.1223                12.0516                 8.1615
 Frc consts  --      0.1444                 0.3700                 0.5271
 IR Inten    --    126.4578                 0.1457                 5.4138

                      4                      5                      6
                     A'                     A'                     A'
 Frequencies --    451.8228               781.4337               966.5747
 Red. masses --     12.3042                12.4122                15.5933
 Frc consts  --      1.4799                 4.4656                 8.5834
 IR Inten    --    199.0665               163.1056                25.0362

                      7                      8                      9
                     A'                     A'                     A'
 Frequencies --   1337.4612              1677.1280              3909.8460
 Red. masses --      1.1429                13.4234                 1.0675
 Frc consts  --      1.2046                22.2457                 9.6149
 IR Inten    --    154.7464               142.3343                83.7606

 - Thermochemistry -
 -------------------
 Temperature   298.150 Kelvin.  Pressure   1.00000 Atm.
 Atom     1 has atomic number  1 and mass   1.00783

 Molecular mass:    62.99564 amu.
 Principal axes and moments of inertia in atomic units:
                           1         2         3
     Eigenvalues --    32.81545 360.03823 392.85367
           X            0.81026  -0.58607   0.00000
           Y            0.58607   0.81026   0.00000
           Z            0.00000  -0.00000   1.00000
 This molecule is an asymmetric top.
 Rotational symmetry number  1.
 Rotational temperatures (Kelvin)      2.63943     0.24057     0.22047
 Rotational constants (GHZ):          54.99670     5.01264     4.59393
    1 imaginary frequencies ignored.
 Zero-point vibrational energy      57920.9 (Joules/Mol)
                                   13.84343 (Kcal/Mol)
 Warning -- explicit consideration of   3 degrees of freedom as
           vibrations may cause significant error
 Vibrational temperatures:    328.44   476.34   650.07  1124.31  1390.69
          (Kelvin)           1924.31  2413.01  5625.40

 Zero-point correction=                           0.022061 (Hartree/Particle)
 Thermal correction to Energy=                    0.026194
 Thermal correction to Enthalpy=                  0.027138
 Thermal correction to Gibbs Free Energy=        -0.004074
 Sum of electronic and zero-point Energies=           -280.424581
 Sum of electronic and thermal Energies=              -280.420448
 Sum of electronic and thermal Enthalpies=            -280.419503
 Sum of electronic and thermal Free Energies=         -280.450716

                     E (Thermal)             CV                S
                      KCal/Mol        Cal/Mol-Kelvin    Cal/Mol-Kelvin
 Total                   16.437             11.997             65.692
 Electronic               0.000              0.000              0.000
 Translational            0.889              2.981             38.341
 Rotational               0.889              2.981             23.055
 Vibrational             14.660              6.036              4.296
 Vibration     1          0.651              1.798              1.892
 Vibration     2          0.713              1.613              1.255
 Vibration     3          0.810              1.357              0.790

                       ! Non-Optimized Parameters !

 1\1\GINC-N2110\Freq\RMP2-FC\Aug-CC-pVTZ\H1N1O3\CGAVINH\21-Feb-2022\1\\
 #p freq mp2/aug-cc-pvtz density=current\\title\\0,1\H\O,1,r1\O,2,r2,1,
 a1\N,3,r3,2,a2,1,d1,0\O,4,r4,3,a3,2,d2,0\\r1=0.9589951\r2=1.45491931\r
 3=1.45878406\r4=1.17072885\a1=97.59494903\a2=102.29752444\a3=109.06955
 123\d1=180.\d2=180.\\Version=ES64L-G16RevB.01\State=1-A'\HF=-279.50207
 08\MP2=-280.4466416\RMSD=3.788e-09\RMSF=3.661e-03\ZeroPoint=0.0220609\
 Thermal=0.026194\Dipole=-0.1449211,0.,-0.5471888\DipoleDeriv=0.2651261
 ,0.,0.0485641,0.,0.3569525,0.,0.0841037,0.,0.2769401,-0.3280967,0.,-0.

 Normal termination of Gaussian 16 at Mon Feb 21 20:06:30 2022.
