 Gaussian 16, Revision B.01,
 Gaussian 16:  ES64L-G16RevB.01 20-Dec-2017

 ---------------------------------------
 #p freq mp2/aug-cc-pvtz density=current
 ---------------------------------------

 -----
 title
 -----
 Symbolic Z-matrix:
 Charge =  0 Multiplicity = 1

                         Standard orientation:
 ---------------------------------------------------------------------
 Center     Atomic      Atomic             Coordinates (Angstroms)
 Number     Number       Type             X           Y           Z
 ---------------------------------------------------------------------
      1          1           0        1.547319    1.681500    0.000000
      2          8           0        1.453973    0.717031    0.000000
      3          8           0        0.000000    0.664560   -0.000000
      4          7           0       -0.259099   -0.771030   -0.000000
      5          8           0       -1.420676   -0.917128   -0.000000
 ---------------------------------------------------------------------

 SCF Done:  E(RHF) =  -279.501571165     A.U. after   14 cycles
 E2 =    -0.9449566836D+00 EUMP2 =    -0.28044652784849D+03
 E2 =    -0.9449566836D+00 EUMP2 =    -0.28044652784849D+03

 The electronic state is 1-A'.
 Alpha  occ. eigenvalues --  -20.69018 -20.68370 -20.65888 -15.81340  -1.62545
 Alpha  occ. eigenvalues --   -1.49449  -1.25303  -0.94852  -0.77185  -0.75977
 Alpha  occ. eigenvalues --   -0.71213  -0.67893  -0.61978  -0.58793  -0.48442
 Alpha  occ. eigenvalues --   -0.47445
 Alpha virt. eigenvalues --    0.02976   0.07096   0.08626   0.10168   0.13386
 Alpha virt. eigenvalues --    0.13386   0.14417   0.15441   0.17844   0.19409
 Alpha virt. eigenvalues --    0.19988   0.20666   0.22078   0.23709   0.23761

 Mulliken charges:
               1
     1  H    0.250147
     2  O   -0.205254
     3  O   -0.144715
     4  N    0.293682
     5  O   -0.193861
 Sum of Mulliken charges =  -0.00000

 Dipole moment (field-independent basis, Debye):
    X=              0.5121    Y=              1.3381    Z=              0.0000  Tot=              1.4327
 Quadrupole moment (field-independent basis, Debye-Ang):
   XX=            -22.5224   YY=            -18.6053   ZZ=            -22.0020
   XY=              3.2147   XZ=             -0.0000   YZ=              0.0000

  Exact polarizability:  33.960   9.315  30.001   0.000   0.000  17.897
 Approx polarizability:  29.053   4.886  23.355   0.000   0.000  15.507

 ******    1 imaginary frequencies (negative Signs) ******

                      1                      2                      3
                     A"                     A"                     A'
 Frequencies --   -263.9978               229.4990               341.6368
 Red. masses --      1.1332                11.1742                 8.6655
 Frc consts  --      0.0465                 0.3468                 0.5959
 IR Inten    --    125.0833                 0.4198                 2.9809

                      4                      5                      6
                     A'                     A'                     A'
 Frequencies --    465.2446               783.0301               968.8302
 Red. masses --     12.1057                12.9574                15.5039
 Frc consts  --      1.5438                 4.6808                 8.5741
 IR Inten    --    200.3229               162.7346                20.0188

                      7                      8                      9
                     A'                     A'                     A'
 Frequencies --   1371.4523              1677.7358              3778.4028
 Red. masses --      1.1331                13.2818                 1.0675
 Frc consts  --      1.2557                22.0269                 8.9794
 IR Inten    --    149.8412               135.6463                81.1920

 - Thermochemistry -
 -------------------
 Temperature   298.150 Kelvin.  Pressure   1.00000 Atm.
 Atom     1 has atomic number  1 and mass   1.00783

 Molecular mass:    62.99564 amu.
 Principal axes and moments of inertia in atomic units:
                           1         2         3
     Eigenvalues --    33.12193 357.13554 390.25747
           X            0.81412  -0.58070   0.00000
           Y            0.58070   0.81412   0.00000
           Z           -0.00000   0.00000   1.00000
 This molecule is an asymmetric top.
 Rotational symmetry number  1.
 Rotational temperatures (Kelvin)      2.61500     0.24252     0.22194
 Rotational constants (GHZ):          54.48780     5.05338     4.62449
    1 imaginary frequencies ignored.
 Zero-point vibrational energy      57515.4 (Joules/Mol)
                                   13.74652 (Kcal/Mol)
 Warning -- explicit consideration of   3 degrees of freedom as
           vibrations may cause significant error
 Vibrational temperatures:    330.20   491.54   669.38  1126.61  1393.93
          (Kelvin)           1973.21  2413.89  5436.28

 Zero-point correction=                           0.021906 (Hartree/Particle)
 Thermal correction to Energy=                    0.026012
 Thermal correction to Enthalpy=                  0.026957
 Thermal correction to Gibbs Free Energy=        -0.004204
 Sum of electronic and zero-point Energies=           -280.424621
 Sum of electronic and thermal Energies=              -280.420515
 Sum of electronic and thermal Enthalpies=            -280.419571
 Sum of electronic and thermal Free Energies=         -280.450731

                     E (Thermal)             CV                S
                      KCal/Mol        Cal/Mol-Kelvin    Cal/Mol-Kelvin
 Total                   16.323             11.925             65.582
 Electronic               0.000              0.000              0.000
 Translational            0.889              2.981             38.341
 Rotational               0.889              2.981             23.050
 Vibrational             14.546              5.963              4.192
 Vibration     1          0.652              1.796              1.883
 Vibration     2          0.721              1.592              1.204
 Vibration     3          0.823              1.327              0.751

                       ! Non-Optimized Parameters !

 1\1\GINC-N2128\Freq\RMP2-FC\Aug-CC-pVTZ\H1N1O3\CGAVINH\21-Feb-2022\1\\
 #p freq mp2/aug-cc-pvtz density=current\\title\\0,1\H\O,1,r1\O,2,r2,1,
 a1\N,3,r3,2,a2,1,d1,0\O,4,r4,3,a3,2,d2,0\\r1=0.96897556\r2=1.45491931\
 r3=1.45878406\r4=1.17072885\a1=97.59494903\a2=102.29752444\a3=107.3995
 2451\d1=180.\d2=180.\\Version=ES64L-G16RevB.01\State=1-A'\HF=-279.5015
 712\MP2=-280.4465278\RMSD=3.722e-09\RMSF=3.160e-03\ZeroPoint=0.0219065
 \Thermal=0.0260124\Dipole=-0.1498261,0.,-0.5433959\DipoleDeriv=0.26536
 96,0.,0.0477959,0.,0.3552187,0.,0.0807062,0.,0.2729772,-0.3322,0.,-0.2

 Normal termination of Gaussian 16 at Mon Feb 21 21:00:44 2022.
