 Gaussian 16, Revision B.01,
 Gaussian 16:  ES64L-G16RevB.01 20-Dec-2017

 ---------------------------------------
 #p freq mp2/aug-cc-pvtz density=current
 ---------------------------------------

 -----
 title
 -----
 Symbolic Z-matrix:
 Charge =  0 Multiplicity = 1

                         Standard orientation:
 ---------------------------------------------------------------------
 Center     Atomic      Atomic             Coordinates (Angstroms)
 Number     Number       Type             X           Y           Z
 ---------------------------------------------------------------------
      1          1           0        1.587751    1.680279    0.000000
      2          8           0        1.454147    0.720559    0.000000
      3          8           0       -0.000000    0.673146    0.000000
      4          7           0       -0.264091   -0.761534   -0.000000
      5          8           0       -1.421536   -0.937397   -0.000000
 ---------------------------------------------------------------------

 SCF Done:  E(RHF) =  -279.501802806     A.U. after   14 cycles
 E2 =    -0.9447693374D+00 EUMP2 =    -0.28044657214323D+03
 E2 =    -0.9447693374D+00 EUMP2 =    -0.28044657214323D+03

 The electronic state is 1-A'.
 Alpha  occ. eigenvalues --  -20.69119 -20.68438 -20.65903 -15.81292  -1.62397
 Alpha  occ. eigenvalues --   -1.49442  -1.25471  -0.94801  -0.77177  -0.76058
 Alpha  occ. eigenvalues --   -0.71158  -0.67989  -0.62007  -0.58732  -0.48495
 Alpha  occ. eigenvalues --   -0.47250
 Alpha virt. eigenvalues --    0.02939   0.07173   0.08595   0.10179   0.13373
 Alpha virt. eigenvalues --    0.13406   0.14411   0.15442   0.17833   0.19439
 Alpha virt. eigenvalues --    0.20000   0.20625   0.22089   0.23540   0.23740

 Mulliken charges:
               1
     1  H    0.247520
     2  O   -0.201772
     3  O   -0.145385
     4  N    0.292633
     5  O   -0.192996
 Sum of Mulliken charges =  -0.00000

 Dipole moment (field-independent basis, Debye):
    X=              0.5581    Y=              1.3622    Z=              0.0000  Tot=              1.4721
 Quadrupole moment (field-independent basis, Debye-Ang):
   XX=            -22.2804   YY=            -18.6463   ZZ=            -22.0141
   XY=              3.3828   XZ=              0.0000   YZ=             -0.0000

  Exact polarizability:  34.131   9.544  30.250  -0.000   0.000  17.948
 Approx polarizability:  29.031   5.164  23.495  -0.000   0.000  15.533

 ******    1 imaginary frequencies (negative Signs) ******

                      1                      2                      3
                     A"                     A"                     A'
 Frequencies --   -296.4573               235.0254               344.5194
 Red. masses --      1.1684                 8.4574                 8.5070
 Frc consts  --      0.0605                 0.2752                 0.5949
 IR Inten    --    125.0797                 2.5791                 3.8104

                      4                      5                      6
                     A'                     A'                     A'
 Frequencies --    450.1558               783.4341               963.4153
 Red. masses --     12.1114                12.9169                14.6291
 Frc consts  --      1.4460                 4.6710                 8.0001
 IR Inten    --    201.7858               172.0657                21.6280

                      7                      8                      9
                     A'                     A'                     A'
 Frequencies --   1357.1616              1676.8524              3779.3602
 Red. masses --      1.1401                13.4485                 1.0681
 Frc consts  --      1.2373                22.2799                 8.9890
 IR Inten    --    144.8638               143.5466                85.4850

 - Thermochemistry -
 -------------------
 Temperature   298.150 Kelvin.  Pressure   1.00000 Atm.
 Atom     1 has atomic number  1 and mass   1.00783

 Molecular mass:    62.99564 amu.
 Principal axes and moments of inertia in atomic units:
                           1         2         3
     Eigenvalues --    32.75807 360.59811 393.35618
           X            0.81145  -0.58442   0.00000
           Y            0.58442   0.81145   0.00000
           Z            0.00000  -0.00000   1.00000
 This molecule is an asymmetric top.
 Rotational symmetry number  1.
 Rotational temperatures (Kelvin)      2.64405     0.24020     0.22019
 Rotational constants (GHZ):          55.09303     5.00485     4.58806
    1 imaginary frequencies ignored.
 Zero-point vibrational energy      57360.5 (Joules/Mol)
                                   13.70948 (Kcal/Mol)
 Warning -- explicit consideration of   3 degrees of freedom as
           vibrations may cause significant error
 Vibrational temperatures:    338.15   495.69   647.67  1127.19  1386.14
          (Kelvin)           1952.65  2412.62  5437.66

 Zero-point correction=                           0.021847 (Hartree/Particle)
 Thermal correction to Energy=                    0.025956
 Thermal correction to Enthalpy=                  0.026900
 Thermal correction to Gibbs Free Energy=        -0.004259
 Sum of electronic and zero-point Energies=           -280.424725
 Sum of electronic and thermal Energies=              -280.420616
 Sum of electronic and thermal Enthalpies=            -280.419672
 Sum of electronic and thermal Free Energies=         -280.450831

                     E (Thermal)             CV                S
                      KCal/Mol        Cal/Mol-Kelvin    Cal/Mol-Kelvin
 Total                   16.288             11.955             65.580
 Electronic               0.000              0.000              0.000
 Translational            0.889              2.981             38.341
 Rotational               0.889              2.981             23.056
 Vibrational             14.510              5.994              4.183
 Vibration     1          0.655              1.787              1.840
 Vibration     2          0.723              1.586              1.191
 Vibration     3          0.809              1.361              0.795

                       ! Non-Optimized Parameters !

 1\1\GINC-N2127\Freq\RMP2-FC\Aug-CC-pVTZ\H1N1O3\CGAVINH\21-Feb-2022\1\\
 #p freq mp2/aug-cc-pvtz density=current\\title\\0,1\H\O,1,r1\O,2,r2,1,
 a1\N,3,r3,2,a2,1,d1,0\O,4,r4,3,a3,2,d2,0\\r1=0.96897556\r2=1.45491931\
 r3=1.45878406\r4=1.17072885\a1=99.79279337\a2=102.29752444\a3=109.0695
 5123\d1=180.\d2=180.\\Version=ES64L-G16RevB.01\State=1-A'\HF=-279.5018
 028\MP2=-280.4465721\RMSD=3.814e-09\RMSF=1.943e-03\ZeroPoint=0.0218475
 \Thermal=0.0259559\Dipole=-0.1435676,0.,-0.5610749\DipoleDeriv=0.25879
 32,0.,0.0402371,0.,0.358232,0.,0.0863807,0.,0.2796775,-0.3130252,0.,-0

 Normal termination of Gaussian 16 at Mon Feb 21 20:38:19 2022.
