 Gaussian 16, Revision B.01,
 Gaussian 16:  ES64L-G16RevB.01 20-Dec-2017

 ---------------------------------------
 #p freq mp2/aug-cc-pvtz density=current
 ---------------------------------------

 -----
 title
 -----
 Symbolic Z-matrix:
 Charge =  0 Multiplicity = 1

                         Standard orientation:
 ---------------------------------------------------------------------
 Center     Atomic      Atomic             Coordinates (Angstroms)
 Number     Number       Type             X           Y           Z
 ---------------------------------------------------------------------
      1          1           0        1.575768    1.655756   -0.000000
      2          8           0        1.454879    0.694351    0.000000
      3          8           0       -0.000000    0.683481   -0.000000
      4          7           0       -0.263708   -0.751269    0.000000
      5          8           0       -1.421105   -0.927442   -0.000000
 ---------------------------------------------------------------------

 SCF Done:  E(RHF) =  -279.501455954     A.U. after   14 cycles
 E2 =    -0.9451869227D+00 EUMP2 =    -0.28044664287721D+03
 E2 =    -0.9451869227D+00 EUMP2 =    -0.28044664287721D+03

 The electronic state is 1-A'.
 Alpha  occ. eigenvalues --  -20.69124 -20.68397 -20.65949 -15.81239  -1.62409
 Alpha  occ. eigenvalues --   -1.49617  -1.25369  -0.94837  -0.77394  -0.75857
 Alpha  occ. eigenvalues --   -0.71201  -0.67707  -0.62005  -0.59050  -0.48534
 Alpha  occ. eigenvalues --   -0.47280
 Alpha virt. eigenvalues --    0.02962   0.07185   0.08592   0.10133   0.13408
 Alpha virt. eigenvalues --    0.13412   0.14426   0.15499   0.17819   0.19399
 Alpha virt. eigenvalues --    0.19967   0.20640   0.22104   0.23553   0.23751

 Mulliken charges:
               1
     1  H    0.248142
     2  O   -0.198341
     3  O   -0.149480
     4  N    0.294211
     5  O   -0.194532
 Sum of Mulliken charges =  -0.00000

 Dipole moment (field-independent basis, Debye):
    X=              0.5442    Y=              1.3482    Z=             -0.0000  Tot=              1.4539
 Quadrupole moment (field-independent basis, Debye-Ang):
   XX=            -22.3167   YY=            -18.7635   ZZ=            -22.0075
   XY=              3.2991   XZ=             -0.0000   YZ=              0.0000

  Exact polarizability:  34.007   9.278  29.981   0.000   0.000  17.910
 Approx polarizability:  29.017   4.925  23.440   0.000  -0.000  15.515

 ******    1 imaginary frequencies (negative Signs) ******

                      1                      2                      3
                     A"                     A"                     A'
 Frequencies --   -258.9812               225.4129               344.1684
 Red. masses --      1.1374                10.4504                 8.5112
 Frc consts  --      0.0449                 0.3129                 0.5940
 IR Inten    --    124.9328                 0.7559                12.1597

                      4                      5                      6
                     A'                     A'                     A'
 Frequencies --    464.3533               786.3519               966.7309
 Red. masses --     12.6444                13.0817                15.5036
 Frc consts  --      1.6064                 4.7659                 8.5368
 IR Inten    --    192.7396               169.0576                21.1748

                      7                      8                      9
                     A'                     A'                     A'
 Frequencies --   1370.8197              1678.0837              3778.6502
 Red. masses --      1.1312                13.1715                 1.0675
 Frc consts  --      1.2525                21.8531                 8.9802
 IR Inten    --    151.1941               141.0396                79.7303

 - Thermochemistry -
 -------------------
 Temperature   298.150 Kelvin.  Pressure   1.00000 Atm.
 Atom     1 has atomic number  1 and mass   1.00783

 Molecular mass:    62.99564 amu.
 Principal axes and moments of inertia in atomic units:
                           1         2         3
     Eigenvalues --    33.60213 356.21745 389.81958
           X            0.81622  -0.57775   0.00000
           Y            0.57775   0.81622   0.00000
           Z            0.00000  -0.00000   1.00000
 This molecule is an asymmetric top.
 Rotational symmetry number  1.
 Rotational temperatures (Kelvin)      2.57763     0.24315     0.22219
 Rotational constants (GHZ):          53.70914     5.06640     4.62968
    1 imaginary frequencies ignored.
 Zero-point vibrational energy      57507.9 (Joules/Mol)
                                   13.74472 (Kcal/Mol)
 Warning -- explicit consideration of   3 degrees of freedom as
           vibrations may cause significant error
 Vibrational temperatures:    324.32   495.18   668.10  1131.39  1390.91
          (Kelvin)           1972.30  2414.39  5436.63

 Zero-point correction=                           0.021904 (Hartree/Particle)
 Thermal correction to Energy=                    0.026013
 Thermal correction to Enthalpy=                  0.026957
 Thermal correction to Gibbs Free Energy=        -0.004218
 Sum of electronic and zero-point Energies=           -280.424739
 Sum of electronic and thermal Energies=              -280.420630
 Sum of electronic and thermal Enthalpies=            -280.419686
 Sum of electronic and thermal Free Energies=         -280.450861

                     E (Thermal)             CV                S
                      KCal/Mol        Cal/Mol-Kelvin    Cal/Mol-Kelvin
 Total                   16.323             11.925             65.614
 Electronic               0.000              0.000              0.000
 Translational            0.889              2.981             38.341
 Rotational               0.889              2.981             23.060
 Vibrational             14.546              5.964              4.213
 Vibration     1          0.650              1.802              1.915
 Vibration     2          0.723              1.587              1.193
 Vibration     3          0.822              1.329              0.754

                       ! Non-Optimized Parameters !

 1\1\GINC-N2110\Freq\RMP2-FC\Aug-CC-pVTZ\H1N1O3\CGAVINH\21-Feb-2022\1\\
 #p freq mp2/aug-cc-pvtz density=current\\title\\0,1\H\O,1,r1\O,2,r2,1,
 a1\N,3,r3,2,a2,1,d1,0\O,4,r4,3,a3,2,d2,0\\r1=0.96897556\r2=1.45491931\
 r3=1.45878406\r4=1.17072885\a1=97.59494903\a2=100.8428234\a3=109.06955
 123\d1=180.\d2=180.\\Version=ES64L-G16RevB.01\State=1-A'\HF=-279.50145
 6\MP2=-280.4466429\RMSD=3.779e-09\RMSF=1.469e-03\ZeroPoint=0.0219036\T
 hermal=0.0260128\Dipole=-0.1462569,0.,-0.5530076\DipoleDeriv=0.2681339
 ,0.,0.0500854,0.,0.3554682,0.,0.0784862,0.,0.2720077,-0.317379,0.,-0.2

 Normal termination of Gaussian 16 at Mon Feb 21 20:50:22 2022.
