 Gaussian 16, Revision B.01,
 Gaussian 16:  ES64L-G16RevB.01 20-Dec-2017

 ---------------------------------------
 #p freq mp2/aug-cc-pvtz density=current
 ---------------------------------------

 -----
 title
 -----
 Symbolic Z-matrix:
 Charge =  0 Multiplicity = 1

                         Standard orientation:
 ---------------------------------------------------------------------
 Center     Atomic      Atomic             Coordinates (Angstroms)
 Number     Number       Type             X           Y           Z
 ---------------------------------------------------------------------
      1          1           0        1.584892    1.680845   -0.000000
      2          8           0        1.454141    0.720731   -0.000000
      3          8           0        0.000000    0.673134    0.000000
      4          7           0       -0.263909   -0.761579    0.000000
      5          8           0       -1.421332   -0.937589    0.000000
 ---------------------------------------------------------------------

 SCF Done:  E(RHF) =  -279.501806608     A.U. after   14 cycles
 E2 =    -0.9447883385D+00 EUMP2 =    -0.28044659494680D+03
 E2 =    -0.9447883385D+00 EUMP2 =    -0.28044659494680D+03

 The electronic state is 1-A'.
 Alpha  occ. eigenvalues --  -20.69116 -20.68437 -20.65910 -15.81291  -1.62398
 Alpha  occ. eigenvalues --   -1.49451  -1.25469  -0.94801  -0.77184  -0.76048
 Alpha  occ. eigenvalues --   -0.71160  -0.67986  -0.62010  -0.58748  -0.48497
 Alpha  occ. eigenvalues --   -0.47250
 Alpha virt. eigenvalues --    0.02941   0.07173   0.08595   0.10179   0.13375
 Alpha virt. eigenvalues --    0.13406   0.14410   0.15443   0.17832   0.19437
 Alpha virt. eigenvalues --    0.19998   0.20626   0.22089   0.23540   0.23740

 Mulliken charges:
               1
     1  H    0.247710
     2  O   -0.201743
     3  O   -0.145516
     4  N    0.292567
     5  O   -0.193018
 Sum of Mulliken charges =  -0.00000

 Dipole moment (field-independent basis, Debye):
    X=              0.5544    Y=              1.3622    Z=              0.0000  Tot=              1.4707
 Quadrupole moment (field-independent basis, Debye-Ang):
   XX=            -22.2946   YY=            -18.6437   ZZ=            -22.0138
   XY=              3.3736   XZ=              0.0000   YZ=             -0.0000

  Exact polarizability:  34.121   9.539  30.250  -0.000  -0.000  17.946
 Approx polarizability:  29.029   5.159  23.497  -0.000  -0.000  15.532

 ******    1 imaginary frequencies (negative Signs) ******

                      1                      2                      3
                     A"                     A"                     A'
 Frequencies --   -294.1016               234.5338               344.3010
 Red. masses --      1.1663                 8.5745                 8.5147
 Frc consts  --      0.0594                 0.2779                 0.5947
 IR Inten    --    125.0593                 2.4368                 3.8632

                      4                      5                      6
                     A'                     A'                     A'
 Frequencies --    450.2685               783.5816               963.7311
 Red. masses --     12.1264                12.9172                14.6961
 Frc consts  --      1.4485                 4.6729                 8.0420
 IR Inten    --    201.6320               171.9771                21.6849

                      7                      8                      9
                     A'                     A'                     A'
 Frequencies --   1358.2303              1676.8880              3779.3155
 Red. masses --      1.1395                13.4318                 1.0681
 Frc consts  --      1.2386                22.2533                 8.9884
 IR Inten    --    145.4455               143.3293                85.2531

 - Thermochemistry -
 -------------------
 Temperature   298.150 Kelvin.  Pressure   1.00000 Atm.
 Atom     1 has atomic number  1 and mass   1.00783

 Molecular mass:    62.99564 amu.
 Principal axes and moments of inertia in atomic units:
                           1         2         3
     Eigenvalues --    32.76414 360.56498 393.32912
           X            0.81135  -0.58456   0.00000
           Y            0.58456   0.81135   0.00000
           Z           -0.00000   0.00000   1.00000
 This molecule is an asymmetric top.
 Rotational symmetry number  1.
 Rotational temperatures (Kelvin)      2.64356     0.24022     0.22021
 Rotational constants (GHZ):          55.08282     5.00531     4.58837
    1 imaginary frequencies ignored.
 Zero-point vibrational energy      57366.0 (Joules/Mol)
                                   13.71081 (Kcal/Mol)
 Warning -- explicit consideration of   3 degrees of freedom as
           vibrations may cause significant error
 Vibrational temperatures:    337.44   495.37   647.84  1127.40  1386.59
          (Kelvin)           1954.19  2412.67  5437.59

 Zero-point correction=                           0.021850 (Hartree/Particle)
 Thermal correction to Energy=                    0.025959
 Thermal correction to Enthalpy=                  0.026903
 Thermal correction to Gibbs Free Energy=        -0.004258
 Sum of electronic and zero-point Energies=           -280.424745
 Sum of electronic and thermal Energies=              -280.420636
 Sum of electronic and thermal Enthalpies=            -280.419692
 Sum of electronic and thermal Free Energies=         -280.450853

                     E (Thermal)             CV                S
                      KCal/Mol        Cal/Mol-Kelvin    Cal/Mol-Kelvin
 Total                   16.289             11.955             65.584
 Electronic               0.000              0.000              0.000
 Translational            0.889              2.981             38.341
 Rotational               0.889              2.981             23.056
 Vibrational             14.512              5.994              4.187
 Vibration     1          0.654              1.788              1.844
 Vibration     2          0.723              1.587              1.192
 Vibration     3          0.809              1.360              0.795

                       ! Non-Optimized Parameters !

 1\1\GINC-N2125\Freq\RMP2-FC\Aug-CC-pVTZ\H1N1O3\CGAVINH\21-Feb-2022\1\\
 #p freq mp2/aug-cc-pvtz density=current\\title\\0,1\H\O,1,r1\O,2,r2,1,
 a1\N,3,r3,2,a2,1,d1,0\O,4,r4,3,a3,2,d2,0\\r1=0.96897556\r2=1.45491931\
 r3=1.45878406\r4=1.17072885\a1=99.62975749\a2=102.29752444\a3=109.0695
 5123\d1=180.\d2=180.\\Version=ES64L-G16RevB.01\State=1-A'\HF=-279.5018
 066\MP2=-280.4465949\RMSD=3.813e-09\RMSF=1.801e-03\ZeroPoint=0.0218496
 \Thermal=0.0259587\Dipole=-0.1438135,0.,-0.5604548\DipoleDeriv=0.25931
 71,0.,0.0408372,0.,0.3580309,0.,0.0860633,0.,0.2793621,-0.3141289,0.,-

 Normal termination of Gaussian 16 at Mon Feb 21 20:37:26 2022.
