 Gaussian 16, Revision B.01,
 Gaussian 16:  ES64L-G16RevB.01 20-Dec-2017

 ---------------------------------------
 #p freq mp2/aug-cc-pvtz density=current
 ---------------------------------------

 -----
 title
 -----
 Symbolic Z-matrix:
 Charge =  0 Multiplicity = 1

                         Standard orientation:
 ---------------------------------------------------------------------
 Center     Atomic      Atomic             Coordinates (Angstroms)
 Number     Number       Type             X           Y           Z
 ---------------------------------------------------------------------
      1          1           0        1.553375    1.665465    0.000000
      2          8           0        1.454261    0.701572    0.000000
      3          8           0        0.000000    0.657800    0.000000
      4          7           0       -0.261627   -0.743781   -0.000000
      5          8           0       -1.419509   -0.916747   -0.000000
 ---------------------------------------------------------------------

 SCF Done:  E(RHF) =  -279.504565618     A.U. after   14 cycles
 E2 =    -0.9419261331D+00 EUMP2 =    -0.28044649175117D+03
 E2 =    -0.9419261331D+00 EUMP2 =    -0.28044649175117D+03

 The electronic state is 1-A'.
 Alpha  occ. eigenvalues --  -20.69647 -20.67639 -20.66400 -15.80757  -1.62661
 Alpha  occ. eigenvalues --   -1.50009  -1.26442  -0.94578  -0.77553  -0.76329
 Alpha  occ. eigenvalues --   -0.71790  -0.67767  -0.61869  -0.59108  -0.48847
 Alpha  occ. eigenvalues --   -0.47359
 Alpha virt. eigenvalues --    0.02872   0.07595   0.08651   0.10206   0.13365
 Alpha virt. eigenvalues --    0.13409   0.14342   0.15388   0.17753   0.19420
 Alpha virt. eigenvalues --    0.19999   0.21019   0.21976   0.23395   0.23781

 Mulliken charges:
               1
     1  H    0.250505
     2  O   -0.199343
     3  O   -0.125328
     4  N    0.281785
     5  O   -0.207619
 Sum of Mulliken charges =  -0.00000

 Dipole moment (field-independent basis, Debye):
    X=              0.6595    Y=              1.5480    Z=              0.0000  Tot=              1.6826
 Quadrupole moment (field-independent basis, Debye-Ang):
   XX=            -22.5264   YY=            -18.7543   ZZ=            -21.9626
   XY=              3.1934   XZ=             -0.0000   YZ=             -0.0000

  Exact polarizability:  34.034   9.285  29.579   0.000   0.000  17.819
 Approx polarizability:  28.862   4.896  22.813   0.000   0.000  15.471

 ******    1 imaginary frequencies (negative Signs) ******

                      1                      2                      3
                     A"                     A"                     A'
 Frequencies --   -260.3431               214.5872               351.9550
 Red. masses --      1.1476                10.0228                 8.6728
 Frc consts  --      0.0458                 0.2719                 0.6330
 IR Inten    --    123.8403                 0.9693                 2.1523

                      4                      5                      6
                     A'                     A'                     A'
 Frequencies --    518.8453               812.6605               972.2587
 Red. masses --     12.3050                12.3981                15.1869
 Frc consts  --      1.9517                 4.8242                 8.4583
 IR Inten    --    158.0987               201.5758                26.9961

                      7                      8                      9
                     A'                     A'                     A'
 Frequencies --   1377.6841              1693.2344              3779.3888
 Red. masses --      1.1390                13.1011                 1.0675
 Frc consts  --      1.2737                22.1306                 8.9840
 IR Inten    --    159.0485               125.5353                81.8854

 - Thermochemistry -
 -------------------
 Temperature   298.150 Kelvin.  Pressure   1.00000 Atm.
 Atom     1 has atomic number  1 and mass   1.00783

 Molecular mass:    62.99564 amu.
 Principal axes and moments of inertia in atomic units:
                           1         2         3
     Eigenvalues --    31.99512 354.19584 386.19096
           X            0.81853  -0.57446   0.00000
           Y            0.57446   0.81853   0.00000
           Z            0.00000  -0.00000   1.00000
 This molecule is an asymmetric top.
 Rotational symmetry number  1.
 Rotational temperatures (Kelvin)      2.70710     0.24454     0.22428
 Rotational constants (GHZ):          56.40676     5.09532     4.67318
    1 imaginary frequencies ignored.
 Zero-point vibrational energy      58142.2 (Joules/Mol)
                                   13.89632 (Kcal/Mol)
 Warning -- explicit consideration of   3 degrees of freedom as
           vibrations may cause significant error
 Vibrational temperatures:    308.74   506.38   746.50  1169.24  1398.86
          (Kelvin)           1982.18  2436.19  5437.70

 Zero-point correction=                           0.022145 (Hartree/Particle)
 Thermal correction to Energy=                    0.026212
 Thermal correction to Enthalpy=                  0.027156
 Thermal correction to Gibbs Free Energy=        -0.003936
 Sum of electronic and zero-point Energies=           -280.424347
 Sum of electronic and thermal Energies=              -280.420280
 Sum of electronic and thermal Enthalpies=            -280.419336
 Sum of electronic and thermal Free Energies=         -280.450428

                     E (Thermal)             CV                S
                      KCal/Mol        Cal/Mol-Kelvin    Cal/Mol-Kelvin
 Total                   16.448             11.750             65.438
 Electronic               0.000              0.000              0.000
 Translational            0.889              2.981             38.341
 Rotational               0.889              2.981             22.997
 Vibrational             14.671              5.789              4.101
 Vibration     1          0.645              1.819              2.004
 Vibration     2          0.729              1.571              1.157
 Vibration     3          0.874              1.208              0.613

                       ! Non-Optimized Parameters !

 1\1\GINC-N2129\Freq\RMP2-FC\Aug-CC-pVTZ\H1N1O3\CGAVINH\21-Feb-2022\1\\
 #p freq mp2/aug-cc-pvtz density=current\\title\\0,1\H\O,1,r1\O,2,r2,1,
 a1\N,3,r3,2,a2,1,d1,0\O,4,r4,3,a3,2,d2,0\\r1=0.96897556\r2=1.45491931\
 r3=1.42579055\r4=1.17072885\a1=97.59494903\a2=102.29752444\a3=109.0695
 5123\d1=180.\d2=180.\\Version=ES64L-G16RevB.01\State=1-A'\HF=-279.5045
 656\MP2=-280.4464918\RMSD=3.388e-09\RMSF=3.932e-03\ZeroPoint=0.0221452
 \Thermal=0.0262118\Dipole=-0.1958293,0.,-0.6323626\DipoleDeriv=0.26916
 ,0.,0.0513485,0.,0.3565128,0.,0.0820084,0.,0.2751651,-0.3227196,0.,-0.

 Normal termination of Gaussian 16 at Mon Feb 21 20:25:30 2022.
