 Gaussian 16, Revision B.01,
 Gaussian 16:  ES64L-G16RevB.01 20-Dec-2017

 ---------------------------------------
 #p freq mp2/aug-cc-pvtz density=current
 ---------------------------------------

 -----
 title
 -----
 Symbolic Z-matrix:
 Charge =  0 Multiplicity = 1

                         Standard orientation:
 ---------------------------------------------------------------------
 Center     Atomic      Atomic             Coordinates (Angstroms)
 Number     Number       Type             X           Y           Z
 ---------------------------------------------------------------------
      1          1           0        1.586357    1.642726   -0.000000
      2          8           0        1.454910    0.682707   -0.000000
      3          8           0       -0.000000    0.687826   -0.000000
      4          7           0       -0.264386   -0.746800    0.000000
      5          8           0       -1.421867   -0.922425    0.000000
 ---------------------------------------------------------------------

 SCF Done:  E(RHF) =  -279.501291597     A.U. after   14 cycles
 E2 =    -0.9452567129D+00 EUMP2 =    -0.28044654831006D+03
 E2 =    -0.9452567129D+00 EUMP2 =    -0.28044654831006D+03

 The electronic state is 1-A'.
 Alpha  occ. eigenvalues --  -20.69137 -20.68384 -20.65928 -15.81220  -1.62411
 Alpha  occ. eigenvalues --   -1.49634  -1.25338  -0.94851  -0.77444  -0.75831
 Alpha  occ. eigenvalues --   -0.71210  -0.67608  -0.61988  -0.59093  -0.48538
 Alpha  occ. eigenvalues --   -0.47292
 Alpha virt. eigenvalues --    0.02962   0.07193   0.08591   0.10116   0.13413
 Alpha virt. eigenvalues --    0.13419   0.14433   0.15516   0.17816   0.19391
 Alpha virt. eigenvalues --    0.19961   0.20637   0.22115   0.23554   0.23756

 Mulliken charges:
               1
     1  H    0.247217
     2  O   -0.196910
     3  O   -0.150494
     4  N    0.295216
     5  O   -0.195029
 Sum of Mulliken charges =  -0.00000

 Dipole moment (field-independent basis, Debye):
    X=              0.5588    Y=              1.3425    Z=             -0.0000  Tot=              1.4542
 Quadrupole moment (field-independent basis, Debye-Ang):
   XX=            -22.2540   YY=            -18.8248   ZZ=            -22.0063
   XY=              3.3140   XZ=             -0.0000   YZ=              0.0000

  Exact polarizability:  34.005   9.198  29.874  -0.000  -0.000  17.902
 Approx polarizability:  29.018   4.851  23.411  -0.000  -0.000  15.513

 ******    1 imaginary frequencies (negative Signs) ******

                      1                      2                      3
                     A"                     A"                     A'
 Frequencies --   -254.4185               223.7522               344.8323
 Red. masses --      1.1368                10.4269                 8.4909
 Frc consts  --      0.0434                 0.3076                 0.5949
 IR Inten    --    125.0204                 0.7456                16.1361

                      4                      5                      6
                     A'                     A'                     A'
 Frequencies --    470.1135               786.7720               966.4951
 Red. masses --     12.7387                13.1480                15.5430
 Frc consts  --      1.6587                 4.7952                 8.5543
 IR Inten    --    189.0758               168.3465                20.5644

                      7                      8                      9
                     A'                     A'                     A'
 Frequencies --   1370.6312              1678.3681              3778.6116
 Red. masses --      1.1304                13.1568                 1.0675
 Frc consts  --      1.2512                21.8360                 8.9798
 IR Inten    --    150.4253               141.3530                78.5187

 - Thermochemistry -
 -------------------
 Temperature   298.150 Kelvin.  Pressure   1.00000 Atm.
 Atom     1 has atomic number  1 and mass   1.00783

 Molecular mass:    62.99564 amu.
 Principal axes and moments of inertia in atomic units:
                           1         2         3
     Eigenvalues --    33.92392 354.56838 388.49230
           X            0.81861  -0.57435   0.00000
           Y            0.57435   0.81861   0.00000
           Z            0.00000  -0.00000   1.00000
 This molecule is an asymmetric top.
 Rotational symmetry number  1.
 Rotational temperatures (Kelvin)      2.55318     0.24428     0.22295
 Rotational constants (GHZ):          53.19966     5.08997     4.64550
    1 imaginary frequencies ignored.
 Zero-point vibrational energy      57537.8 (Joules/Mol)
                                   13.75187 (Kcal/Mol)
 Warning -- explicit consideration of   3 degrees of freedom as
           vibrations may cause significant error
 Vibrational temperatures:    321.93   496.14   676.39  1131.99  1390.57
          (Kelvin)           1972.03  2414.80  5436.58

 Zero-point correction=                           0.021915 (Hartree/Particle)
 Thermal correction to Energy=                    0.026021
 Thermal correction to Enthalpy=                  0.026965
 Thermal correction to Gibbs Free Energy=        -0.004208
 Sum of electronic and zero-point Energies=           -280.424633
 Sum of electronic and thermal Energies=              -280.420527
 Sum of electronic and thermal Enthalpies=            -280.419583
 Sum of electronic and thermal Free Energies=         -280.450756

                     E (Thermal)             CV                S
                      KCal/Mol        Cal/Mol-Kelvin    Cal/Mol-Kelvin
 Total                   16.329             11.913             65.609
 Electronic               0.000              0.000              0.000
 Translational            0.889              2.981             38.341
 Rotational               0.889              2.981             23.062
 Vibrational             14.551              5.952              4.207
 Vibration     1          0.649              1.805              1.929
 Vibration     2          0.723              1.586              1.190
 Vibration     3          0.827              1.316              0.737

                       ! Non-Optimized Parameters !

 1\1\GINC-N2126\Freq\RMP2-FC\Aug-CC-pVTZ\H1N1O3\CGAVINH\21-Feb-2022\1\\
 #p freq mp2/aug-cc-pvtz density=current\\title\\0,1\H\O,1,r1\O,2,r2,1,
 a1\N,3,r3,2,a2,1,d1,0\O,4,r4,3,a3,2,d2,0\\r1=0.96897556\r2=1.45491931\
 r3=1.45878406\r4=1.17072885\a1=97.59494903\a2=100.2402665\a3=109.06955
 123\d1=180.\d2=180.\\Version=ES64L-G16RevB.01\State=1-A'\HF=-279.50129
 16\MP2=-280.4465483\RMSD=3.775e-09\RMSF=2.105e-03\ZeroPoint=0.021915\T
 hermal=0.0260211\Dipole=-0.1461522,0.,-0.553133\DipoleDeriv=0.2688292,
 0.,0.0508211,0.,0.3554346,0.,0.0769445,0.,0.2704177,-0.312989,0.,-0.19

 Normal termination of Gaussian 16 at Mon Feb 21 20:51:23 2022.
