 Gaussian 16, Revision B.01,
 Gaussian 16:  ES64L-G16RevB.01 20-Dec-2017

 ---------------------------------------
 #p freq mp2/aug-cc-pvtz density=current
 ---------------------------------------

 -----
 title
 -----
 Symbolic Z-matrix:
 Charge =  0 Multiplicity = 1

                         Standard orientation:
 ---------------------------------------------------------------------
 Center     Atomic      Atomic             Coordinates (Angstroms)
 Number     Number       Type             X           Y           Z
 ---------------------------------------------------------------------
      1          1           0        1.547232    1.681175    0.000000
      2          8           0        1.453968    0.716698    0.000000
      3          8           0        0.000000    0.664102    0.000000
      4          7           0       -0.258975   -0.771510    0.000000
      5          8           0       -1.420769   -0.915876    0.000000
 ---------------------------------------------------------------------

 SCF Done:  E(RHF) =  -279.501551528     A.U. after   14 cycles
 E2 =    -0.9449530442D+00 EUMP2 =    -0.28044650457218D+03
 E2 =    -0.9449530442D+00 EUMP2 =    -0.28044650457218D+03

 The electronic state is 1-A'.
 Alpha  occ. eigenvalues --  -20.69015 -20.68367 -20.65882 -15.81343  -1.62553
 Alpha  occ. eigenvalues --   -1.49442  -1.25295  -0.94855  -0.77180  -0.75980
 Alpha  occ. eigenvalues --   -0.71215  -0.67890  -0.61974  -0.58785  -0.48438
 Alpha  occ. eigenvalues --   -0.47456
 Alpha virt. eigenvalues --    0.02977   0.07092   0.08628   0.10168   0.13385
 Alpha virt. eigenvalues --    0.13385   0.14418   0.15440   0.17845   0.19409
 Alpha virt. eigenvalues --    0.19988   0.20667   0.22077   0.23718   0.23762

 Mulliken charges:
               1
     1  H    0.250139
     2  O   -0.205455
     3  O   -0.144577
     4  N    0.293788
     5  O   -0.193894
 Sum of Mulliken charges =  -0.00000

 Dipole moment (field-independent basis, Debye):
    X=              0.5123    Y=              1.3368    Z=             -0.0000  Tot=              1.4316
 Quadrupole moment (field-independent basis, Debye-Ang):
   XX=            -22.5253   YY=            -18.6048   ZZ=            -22.0015
   XY=              3.2124   XZ=              0.0000   YZ=              0.0000

  Exact polarizability:  33.957   9.307  29.988  -0.000  -0.000  17.895
 Approx polarizability:  29.055   4.874  23.347  -0.000  -0.000  15.507

 ******    1 imaginary frequencies (negative Signs) ******

                      1                      2                      3
                     A"                     A"                     A'
 Frequencies --   -263.7205               229.4635               341.6377
 Red. masses --      1.1329                11.2096                 8.6682
 Frc consts  --      0.0464                 0.3477                 0.5961
 IR Inten    --    125.0986                 0.4040                 2.9207

                      4                      5                      6
                     A'                     A'                     A'
 Frequencies --    465.9622               782.8957               968.9178
 Red. masses --     12.0945                12.9601                15.5093
 Frc consts  --      1.5472                 4.6802                 8.5786
 IR Inten    --    200.3558               162.2551                19.8896

                      7                      8                      9
                     A'                     A'                     A'
 Frequencies --   1371.4585              1677.7534              3778.3862
 Red. masses --      1.1331                13.2857                 1.0675
 Frc consts  --      1.2556                22.0339                 8.9793
 IR Inten    --    149.6655               135.3859                81.1178

 - Thermochemistry -
 -------------------
 Temperature   298.150 Kelvin.  Pressure   1.00000 Atm.
 Atom     1 has atomic number  1 and mass   1.00783

 Molecular mass:    62.99564 amu.
 Principal axes and moments of inertia in atomic units:
                           1         2         3
     Eigenvalues --    33.13789 356.96990 390.10779
           X            0.81434  -0.58039   0.00000
           Y            0.58039   0.81434   0.00000
           Z            0.00000   0.00000   1.00000
 This molecule is an asymmetric top.
 Rotational symmetry number  1.
 Rotational temperatures (Kelvin)      2.61374     0.24264     0.22203
 Rotational constants (GHZ):          54.46156     5.05572     4.62626
    1 imaginary frequencies ignored.
 Zero-point vibrational energy      57519.3 (Joules/Mol)
                                   13.74744 (Kcal/Mol)
 Warning -- explicit consideration of   3 degrees of freedom as
           vibrations may cause significant error
 Vibrational temperatures:    330.15   491.54   670.42  1126.41  1394.06
          (Kelvin)           1973.22  2413.91  5436.26

 Zero-point correction=                           0.021908 (Hartree/Particle)
 Thermal correction to Energy=                    0.026013
 Thermal correction to Enthalpy=                  0.026958
 Thermal correction to Gibbs Free Energy=        -0.004202
 Sum of electronic and zero-point Energies=           -280.424597
 Sum of electronic and thermal Energies=              -280.420491
 Sum of electronic and thermal Enthalpies=            -280.419547
 Sum of electronic and thermal Free Energies=         -280.450706

                     E (Thermal)             CV                S
                      KCal/Mol        Cal/Mol-Kelvin    Cal/Mol-Kelvin
 Total                   16.324             11.924             65.580
 Electronic               0.000              0.000              0.000
 Translational            0.889              2.981             38.341
 Rotational               0.889              2.981             23.049
 Vibrational             14.546              5.962              4.190
 Vibration     1          0.652              1.796              1.883
 Vibration     2          0.721              1.592              1.204
 Vibration     3          0.823              1.326              0.749

                       ! Non-Optimized Parameters !

 1\1\GINC-N2129\Freq\RMP2-FC\Aug-CC-pVTZ\H1N1O3\CGAVINH\21-Feb-2022\1\\
 #p freq mp2/aug-cc-pvtz density=current\\title\\0,1\H\O,1,r1\O,2,r2,1,
 a1\N,3,r3,2,a2,1,d1,0\O,4,r4,3,a3,2,d2,0\\r1=0.96897556\r2=1.45491931\
 r3=1.45878406\r4=1.17072885\a1=97.59494903\a2=102.29752444\a3=107.3091
 885\d1=180.\d2=180.\\Version=ES64L-G16RevB.01\State=1-A'\HF=-279.50155
 15\MP2=-280.4465046\RMSD=3.719e-09\RMSF=3.331e-03\ZeroPoint=0.0219079\
 Thermal=0.0260134\Dipole=-0.1499826,0.,-0.5428896\DipoleDeriv=0.265312
 9,0.,0.0477688,0.,0.3551996,0.,0.0806264,0.,0.2728335,-0.3324481,0.,-0

 Normal termination of Gaussian 16 at Mon Feb 21 21:00:28 2022.
