 Gaussian 16, Revision B.01,
 Gaussian 16:  ES64L-G16RevB.01 20-Dec-2017

 ---------------------------------------
 #p freq mp2/aug-cc-pvtz density=current
 ---------------------------------------

 -----
 title
 -----
 Symbolic Z-matrix:
 Charge =  0 Multiplicity = 1

                         Standard orientation:
 ---------------------------------------------------------------------
 Center     Atomic      Atomic             Coordinates (Angstroms)
 Number     Number       Type             X           Y           Z
 ---------------------------------------------------------------------
      1          1           0        1.520869    1.718654   -0.000000
      2          8           0        1.452161    0.752118   -0.000000
      3          8           0       -0.000000    0.662567    0.000000
      4          7           0       -0.258915   -0.773056    0.000000
      5          8           0       -1.415718   -0.953092    0.000000
 ---------------------------------------------------------------------

 SCF Done:  E(RHF) =  -279.501698068     A.U. after   14 cycles
 E2 =    -0.9449462172D+00 EUMP2 =    -0.28044664428484D+03
 E2 =    -0.9449462172D+00 EUMP2 =    -0.28044664428484D+03

 The electronic state is 1-A'.
 Alpha  occ. eigenvalues --  -20.69045 -20.68463 -20.66047 -15.81328  -1.62398
 Alpha  occ. eigenvalues --   -1.49533  -1.25509  -0.94780  -0.77168  -0.75976
 Alpha  occ. eigenvalues --   -0.71158  -0.68153  -0.62084  -0.58833  -0.48510
 Alpha  occ. eigenvalues --   -0.47221
 Alpha virt. eigenvalues --    0.02963   0.07150   0.08597   0.10211   0.13378
 Alpha virt. eigenvalues --    0.13380   0.14389   0.15403   0.17832   0.19432
 Alpha virt. eigenvalues --    0.19996   0.20613   0.22066   0.23523   0.23726

 Mulliken charges:
               1
     1  H    0.252214
     2  O   -0.204544
     3  O   -0.145034
     4  N    0.289219
     5  O   -0.191856
 Sum of Mulliken charges =  -0.00000

 Dipole moment (field-independent basis, Debye):
    X=              0.4712    Y=              1.3715    Z=              0.0000  Tot=              1.4501
 Quadrupole moment (field-independent basis, Debye-Ang):
   XX=            -22.6222   YY=            -18.4683   ZZ=            -22.0132
   XY=              3.2028   XZ=              0.0000   YZ=             -0.0000

  Exact polarizability:  33.978   9.667  30.546  -0.000   0.000  17.945
 Approx polarizability:  28.988   5.289  23.618  -0.000  -0.000  15.528

 ******    1 imaginary frequencies (negative Signs) ******

                      1                      2                      3
                     A"                     A"                     A'
 Frequencies --   -278.5521               232.1180               336.4155
 Red. masses --      1.1404                10.6088                 8.8091
 Frc consts  --      0.0521                 0.3368                 0.5874
 IR Inten    --    124.5441                 0.7855                 1.6086

                      4                      5                      6
                     A'                     A'                     A'
 Frequencies --    440.9564               784.5359               967.7259
 Red. masses --     11.8437                12.7527                15.2678
 Frc consts  --      1.3568                 4.6246                 8.4243
 IR Inten    --    202.4303               172.4848                24.0867

                      7                      8                      9
                     A'                     A'                     A'
 Frequencies --   1371.6431              1676.5009              3778.7021
 Red. masses --      1.1357                13.2476                 1.0676
 Frc consts  --      1.2589                21.9379                 8.9814
 IR Inten    --    154.8239               140.1498                85.1913

 - Thermochemistry -
 -------------------
 Temperature   298.150 Kelvin.  Pressure   1.00000 Atm.
 Atom     1 has atomic number  1 and mass   1.00783

 Molecular mass:    62.99564 amu.
 Principal axes and moments of inertia in atomic units:
                           1         2         3
     Eigenvalues --    32.10048 363.99991 396.10039
           X            0.80369  -0.59505   0.00000
           Y            0.59505   0.80369   0.00000
           Z           -0.00000   0.00000   1.00000
 This molecule is an asymmetric top.
 Rotational symmetry number  1.
 Rotational temperatures (Kelvin)      2.69821     0.23795     0.21867
 Rotational constants (GHZ):          56.22163     4.95808     4.55627
    1 imaginary frequencies ignored.
 Zero-point vibrational energy      57352.6 (Joules/Mol)
                                   13.70759 (Kcal/Mol)
 Warning -- explicit consideration of   3 degrees of freedom as
           vibrations may cause significant error
 Vibrational temperatures:    333.97   484.03   634.44  1128.77  1392.34
          (Kelvin)           1973.49  2412.11  5436.71

 Zero-point correction=                           0.021844 (Hartree/Particle)
 Thermal correction to Energy=                    0.025973
 Thermal correction to Enthalpy=                  0.026917
 Thermal correction to Gibbs Free Energy=        -0.004281
 Sum of electronic and zero-point Energies=           -280.424800
 Sum of electronic and thermal Energies=              -280.420672
 Sum of electronic and thermal Enthalpies=            -280.419727
 Sum of electronic and thermal Free Energies=         -280.450925

                     E (Thermal)             CV                S
                      KCal/Mol        Cal/Mol-Kelvin    Cal/Mol-Kelvin
 Total                   16.298             11.984             65.661
 Electronic               0.000              0.000              0.000
 Translational            0.889              2.981             38.341
 Rotational               0.889              2.981             23.052
 Vibrational             14.521              6.022              4.268
 Vibration     1          0.653              1.792              1.863
 Vibration     2          0.717              1.603              1.229
 Vibration     3          0.801              1.381              0.824

                       ! Non-Optimized Parameters !

 1\1\GINC-N2110\Freq\RMP2-FC\Aug-CC-pVTZ\H1N1O3\CGAVINH\21-Feb-2022\1\\
 #p freq mp2/aug-cc-pvtz density=current\\title\\0,1\H\O,1,r1\O,2,r2,1,
 a1\N,3,r3,2,a2,1,d1,0\O,4,r4,3,a3,2,d2,0\\r1=0.96897556\r2=1.45491931\
 r3=1.45878406\r4=1.17072885\a1=97.59494903\a2=103.75222548\a3=109.0695
 5123\d1=180.\d2=180.\\Version=ES64L-G16RevB.01\State=1-A'\HF=-279.5016
 981\MP2=-280.4466443\RMSD=3.805e-09\RMSF=1.529e-03\ZeroPoint=0.0218444
 \Thermal=0.0259727\Dipole=-0.1466549,0.,-0.5513618\DipoleDeriv=0.26448
 07,0.,0.046471,0.,0.3556444,0.,0.0857042,0.,0.2787989,-0.3389328,0.,-0

 Normal termination of Gaussian 16 at Mon Feb 21 20:46:01 2022.
