 Gaussian 16, Revision B.01,
 Gaussian 16:  ES64L-G16RevB.01 20-Dec-2017

 ---------------------------------------
 #p freq mp2/aug-cc-pvtz density=current
 ---------------------------------------

 -----
 title
 -----
 Symbolic Z-matrix:
 Charge =  0 Multiplicity = 1

                         Standard orientation:
 ---------------------------------------------------------------------
 Center     Atomic      Atomic             Coordinates (Angstroms)
 Number     Number       Type             X           Y           Z
 ---------------------------------------------------------------------
      1          1           0        1.568257    1.678751   -0.000000
      2          8           0        1.467784    0.714998    0.000000
      3          8           0       -0.000000    0.672890   -0.000000
      4          7           0       -0.269703   -0.760746    0.000000
      5          8           0       -1.427827   -0.932079   -0.000000
 ---------------------------------------------------------------------

 SCF Done:  E(RHF) =  -279.500484268     A.U. after   14 cycles
 E2 =    -0.9461554354D+00 EUMP2 =    -0.28044663970329D+03
 E2 =    -0.9461554354D+00 EUMP2 =    -0.28044663970329D+03

 The electronic state is 1-A'.
 Alpha  occ. eigenvalues --  -20.69164 -20.68453 -20.66114 -15.81310  -1.62366
 Alpha  occ. eigenvalues --   -1.49047  -1.25680  -0.94788  -0.77140  -0.75812
 Alpha  occ. eigenvalues --   -0.71062  -0.67937  -0.61917  -0.58754  -0.48761
 Alpha  occ. eigenvalues --   -0.47280
 Alpha virt. eigenvalues --    0.02960   0.07166   0.08559   0.10165   0.13325
 Alpha virt. eigenvalues --    0.13397   0.14401   0.15447   0.17829   0.19430
 Alpha virt. eigenvalues --    0.19986   0.20621   0.21832   0.23062   0.23727

 Mulliken charges:
               1
     1  H    0.251028
     2  O   -0.203203
     3  O   -0.147844
     4  N    0.292834
     5  O   -0.192816
 Sum of Mulliken charges =  -0.00000

 Dipole moment (field-independent basis, Debye):
    X=              0.5107    Y=              1.3488    Z=             -0.0000  Tot=              1.4423
 Quadrupole moment (field-independent basis, Debye-Ang):
   XX=            -22.3950   YY=            -18.6652   ZZ=            -22.0290
   XY=              3.2980   XZ=             -0.0000   YZ=              0.0000

  Exact polarizability:  34.331   9.493  30.199   0.000  -0.000  17.972
 Approx polarizability:  29.406   5.095  23.491   0.000  -0.000  15.544

 ******    1 imaginary frequencies (negative Signs) ******

                      1                      2                      3
                     A"                     A"                     A'
 Frequencies --   -274.2939               233.3732               343.1034
 Red. masses --      1.1409                10.3421                 8.7016
 Frc consts  --      0.0506                 0.3319                 0.6035
 IR Inten    --    124.2553                 0.8898                 2.9428

                      4                      5                      6
                     A'                     A'                     A'
 Frequencies --    447.7082               776.1618               941.0106
 Red. masses --     12.1929                13.1200                14.9695
 Frc consts  --      1.4400                 4.6568                 7.8099
 IR Inten    --    199.2280               164.7311                30.8689

                      7                      8                      9
                     A'                     A'                     A'
 Frequencies --   1356.1395              1676.6533              3779.9759
 Red. masses --      1.1326                13.3544                 1.0676
 Frc consts  --      1.2273                22.1188                 8.9877
 IR Inten    --    151.6726               141.3087                81.8684

 - Thermochemistry -
 -------------------
 Temperature   298.150 Kelvin.  Pressure   1.00000 Atm.
 Atom     1 has atomic number  1 and mass   1.00783

 Molecular mass:    62.99564 amu.
 Principal axes and moments of inertia in atomic units:
                           1         2         3
     Eigenvalues --    33.03787 362.42836 395.46623
           X            0.81505  -0.57939   0.00000
           Y            0.57939   0.81505   0.00000
           Z            0.00000  -0.00000   1.00000
 This molecule is an asymmetric top.
 Rotational symmetry number  1.
 Rotational temperatures (Kelvin)      2.62166     0.23898     0.21902
 Rotational constants (GHZ):          54.62645     4.97958     4.56358
    1 imaginary frequencies ignored.
 Zero-point vibrational energy      57146.4 (Joules/Mol)
                                   13.65831 (Kcal/Mol)
 Warning -- explicit consideration of   3 degrees of freedom as
           vibrations may cause significant error
 Vibrational temperatures:    335.77   493.65   644.15  1116.72  1353.90
          (Kelvin)           1951.18  2412.33  5438.54

 Zero-point correction=                           0.021766 (Hartree/Particle)
 Thermal correction to Energy=                    0.025886
 Thermal correction to Enthalpy=                  0.026831
 Thermal correction to Gibbs Free Energy=        -0.004358
 Sum of electronic and zero-point Energies=           -280.424874
 Sum of electronic and thermal Energies=              -280.420753
 Sum of electronic and thermal Enthalpies=            -280.419809
 Sum of electronic and thermal Free Energies=         -280.450998

                     E (Thermal)             CV                S
                      KCal/Mol        Cal/Mol-Kelvin    Cal/Mol-Kelvin
 Total                   16.244             12.007             65.642
 Electronic               0.000              0.000              0.000
 Translational            0.889              2.981             38.341
 Rotational               0.889              2.981             23.075
 Vibrational             14.467              6.045              4.227
 Vibration     1          0.654              1.790              1.853
 Vibration     2          0.722              1.589              1.198
 Vibration     3          0.807              1.366              0.803

                       ! Non-Optimized Parameters !

 1\1\GINC-N2110\Freq\RMP2-FC\Aug-CC-pVTZ\H1N1O3\CGAVINH\21-Feb-2022\1\\
 #p freq mp2/aug-cc-pvtz density=current\\title\\0,1\H\O,1,r1\O,2,r2,1,
 a1\N,3,r3,2,a2,1,d1,0\O,4,r4,3,a3,2,d2,0\\r1=0.96897556\r2=1.4683882\r
 3=1.45878406\r4=1.17072885\a1=97.59494903\a2=102.29752444\a3=109.06955
 123\d1=180.\d2=180.\\Version=ES64L-G16RevB.01\State=1-A'\HF=-279.50048
 43\MP2=-280.4466397\RMSD=3.925e-09\RMSF=2.369e-03\ZeroPoint=0.0217659\
 Thermal=0.0258865\Dipole=-0.1448303,0.,-0.5486358\DipoleDeriv=0.266067
 9,0.,0.0475093,0.,0.354976,0.,0.084052,0.,0.2738158,-0.3277549,0.,-0.2

 Normal termination of Gaussian 16 at Mon Feb 21 20:10:56 2022.
