 Gaussian 16, Revision B.01,
 Gaussian 16:  ES64L-G16RevB.01 20-Dec-2017

 ---------------------------------------
 #p freq mp2/aug-cc-pvtz density=current
 ---------------------------------------

 -----
 title
 -----
 Symbolic Z-matrix:
 Charge =  0 Multiplicity = 1

                         Standard orientation:
 ---------------------------------------------------------------------
 Center     Atomic      Atomic             Coordinates (Angstroms)
 Number     Number       Type             X           Y           Z
 ---------------------------------------------------------------------
      1          1           0        1.545012    1.708671   -0.000000
      2          8           0        1.453850    0.743994   -0.000000
      3          8           0       -0.000000    0.688230   -0.000000
      4          7           0       -0.261633   -0.780426    0.000000
      5          8           0       -1.418048   -0.962934    0.000000
 ---------------------------------------------------------------------

 SCF Done:  E(RHF) =  -279.498245615     A.U. after   14 cycles
 E2 =    -0.9482737121D+00 EUMP2 =    -0.28044651932712D+03
 E2 =    -0.9482737121D+00 EUMP2 =    -0.28044651932712D+03

 The electronic state is 1-A'.
 Alpha  occ. eigenvalues --  -20.69207 -20.68531 -20.65594 -15.81817  -1.62312
 Alpha  occ. eigenvalues --   -1.49084  -1.24460  -0.95078  -0.77023  -0.75560
 Alpha  occ. eigenvalues --   -0.70665  -0.68101  -0.62199  -0.58760  -0.48166
 Alpha  occ. eigenvalues --   -0.47079
 Alpha virt. eigenvalues --    0.03053   0.06743   0.08530   0.10132   0.13375
 Alpha virt. eigenvalues --    0.13416   0.14477   0.15518   0.17898   0.19394
 Alpha virt. eigenvalues --    0.19965   0.20126   0.22164   0.23680   0.23702

 Mulliken charges:
               1
     1  H    0.249922
     2  O   -0.203852
     3  O   -0.168320
     4  N    0.301118
     5  O   -0.178868
 Sum of Mulliken charges =   0.00000

 Dipole moment (field-independent basis, Debye):
    X=              0.3599    Y=              1.1683    Z=             -0.0000  Tot=              1.2225
 Quadrupole moment (field-independent basis, Debye-Ang):
   XX=            -22.4130   YY=            -18.4740   ZZ=            -22.0573
   XY=              3.3180   XZ=              0.0000   YZ=             -0.0000

  Exact polarizability:  33.987   9.657  30.944  -0.000  -0.000  18.042
 Approx polarizability:  29.170   5.337  24.295  -0.000  -0.000  15.573

 ******    1 imaginary frequencies (negative Signs) ******

                      1                      2                      3
                     A"                     A"                     A'
 Frequencies --   -278.1576               242.1858               329.5985
 Red. masses --      1.1320                10.9297                 8.4826
 Frc consts  --      0.0516                 0.3777                 0.5429
 IR Inten    --    125.4764                 0.6463                14.5371

                      4                      5                      6
                     A'                     A'                     A'
 Frequencies --    390.9068               767.2485               961.9633
 Red. masses --     12.5848                13.1877                15.5471
 Frc consts  --      1.1330                 4.5739                 8.4765
 IR Inten    --    213.6866               148.9310                19.4896

                      7                      8                      9
                     A'                     A'                     A'
 Frequencies --   1365.1571              1663.2142              3777.9331
 Red. masses --      1.1292                13.3557                 1.0676
 Frc consts  --      1.2399                21.7677                 8.9774
 IR Inten    --    147.0933               157.2186                83.0018

 - Thermochemistry -
 -------------------
 Temperature   298.150 Kelvin.  Pressure   1.00000 Atm.
 Atom     1 has atomic number  1 and mass   1.00783

 Molecular mass:    62.99564 amu.
 Principal axes and moments of inertia in atomic units:
                           1         2         3
     Eigenvalues --    33.67662 366.22846 399.90508
           X            0.80180  -0.59759   0.00000
           Y            0.59759   0.80180   0.00000
           Z           -0.00000   0.00000   1.00000
 This molecule is an asymmetric top.
 Rotational symmetry number  1.
 Rotational temperatures (Kelvin)      2.57193     0.23650     0.21659
 Rotational constants (GHZ):          53.59033     4.92791     4.51292
    1 imaginary frequencies ignored.
 Zero-point vibrational energy      56811.9 (Joules/Mol)
                                   13.57837 (Kcal/Mol)
 Warning -- explicit consideration of   3 degrees of freedom as
           vibrations may cause significant error
 Vibrational temperatures:    348.45   474.22   562.43  1103.90  1384.05
          (Kelvin)           1964.16  2392.99  5435.60

 Zero-point correction=                           0.021639 (Hartree/Particle)
 Thermal correction to Energy=                    0.025813
 Thermal correction to Enthalpy=                  0.026758
 Thermal correction to Gibbs Free Energy=        -0.004541
 Sum of electronic and zero-point Energies=           -280.424881
 Sum of electronic and thermal Energies=              -280.420706
 Sum of electronic and thermal Enthalpies=            -280.419762
 Sum of electronic and thermal Free Energies=         -280.451060

                     E (Thermal)             CV                S
                      KCal/Mol        Cal/Mol-Kelvin    Cal/Mol-Kelvin
 Total                   16.198             12.131             65.873
 Electronic               0.000              0.000              0.000
 Translational            0.889              2.981             38.341
 Rotational               0.889              2.981             23.116
 Vibrational             14.421              6.170              4.417
 Vibration     1          0.658              1.776              1.787
 Vibration     2          0.712              1.616              1.262
 Vibration     3          0.759              1.490              0.997

                       ! Non-Optimized Parameters !

 1\1\GINC-N2129\Freq\RMP2-FC\Aug-CC-pVTZ\H1N1O3\CGAVINH\21-Feb-2022\1\\
 #p freq mp2/aug-cc-pvtz density=current\\title\\0,1\H\O,1,r1\O,2,r2,1,
 a1\N,3,r3,2,a2,1,d1,0\O,4,r4,3,a3,2,d2,0\\r1=0.96897556\r2=1.45491931\
 r3=1.49177757\r4=1.17072885\a1=97.59494903\a2=102.29752444\a3=109.0695
 5123\d1=180.\d2=180.\\Version=ES64L-G16RevB.01\State=1-A'\HF=-279.4982
 456\MP2=-280.4465193\RMSD=4.296e-09\RMSF=3.331e-03\ZeroPoint=0.0216385
 \Thermal=0.0258135\Dipole=-0.0977426,0.,-0.4709193\DipoleDeriv=0.26348
 4,0.,0.0451587,0.,0.3545725,0.,0.0820901,0.,0.275632,-0.334424,0.,-0.2

 Normal termination of Gaussian 16 at Mon Feb 21 20:21:02 2022.
