 Gaussian 16, Revision B.01,
 Gaussian 16:  ES64L-G16RevB.01 20-Dec-2017

 ---------------------------------------
 #p freq mp2/aug-cc-pvtz density=current
 ---------------------------------------

 -----
 title
 -----
 Symbolic Z-matrix:
 Charge =  0 Multiplicity = 1

                         Standard orientation:
 ---------------------------------------------------------------------
 Center     Atomic      Atomic             Coordinates (Angstroms)
 Number     Number       Type             X           Y           Z
 ---------------------------------------------------------------------
      1          1           0        1.595270    1.678752    0.000000
      2          8           0        1.454162    0.720106    0.000000
      3          8           0       -0.000000    0.673178    0.000000
      4          7           0       -0.264569   -0.761414   -0.000000
      5          8           0       -1.422073   -0.936891   -0.000000
 ---------------------------------------------------------------------

 SCF Done:  E(RHF) =  -279.501783470     A.U. after   14 cycles
 E2 =    -0.9447205329D+00 EUMP2 =    -0.28044650400275D+03
 E2 =    -0.9447205329D+00 EUMP2 =    -0.28044650400275D+03

 The electronic state is 1-A'.
 Alpha  occ. eigenvalues --  -20.69126 -20.68440 -20.65883 -15.81294  -1.62397
 Alpha  occ. eigenvalues --   -1.49416  -1.25477  -0.94800  -0.77159  -0.76085
 Alpha  occ. eigenvalues --   -0.71155  -0.67998  -0.61999  -0.58689  -0.48489
 Alpha  occ. eigenvalues --   -0.47250
 Alpha virt. eigenvalues --    0.02935   0.07174   0.08595   0.10180   0.13368
 Alpha virt. eigenvalues --    0.13408   0.14412   0.15440   0.17834   0.19443
 Alpha virt. eigenvalues --    0.20003   0.20622   0.22090   0.23537   0.23740

 Mulliken charges:
               1
     1  H    0.247033
     2  O   -0.201859
     3  O   -0.145041
     4  N    0.292806
     5  O   -0.192939
 Sum of Mulliken charges =  -0.00000

 Dipole moment (field-independent basis, Debye):
    X=              0.5676    Y=              1.3621    Z=              0.0000  Tot=              1.4756
 Quadrupole moment (field-independent basis, Debye-Ang):
   XX=            -22.2429   YY=            -18.6534   ZZ=            -22.0149
   XY=              3.4069   XZ=             -0.0000   YZ=             -0.0000

  Exact polarizability:  34.158   9.558  30.249   0.000   0.000  17.951
 Approx polarizability:  29.036   5.175  23.489   0.000   0.000  15.535

 ******    1 imaginary frequencies (negative Signs) ******

                      1                      2                      3
                     A"                     A"                     A'
 Frequencies --   -302.8696               236.3377               345.0807
 Red. masses --      1.1737                 8.1734                 8.4867
 Frc consts  --      0.0634                 0.2690                 0.5954
 IR Inten    --    125.1389                 2.9500                 3.6760

                      4                      5                      6
                     A'                     A'                     A'
 Frequencies --    449.8585               783.0444               962.5620
 Red. masses --     12.0718                12.9159                14.4463
 Frc consts  --      1.4394                 4.6660                 7.8861
 IR Inten    --    202.1912               172.2927                21.4920

                      7                      8                      9
                     A'                     A'                     A'
 Frequencies --   1354.3306              1676.7589              3779.4747
 Red. masses --      1.1417                13.4915                 1.0682
 Frc consts  --      1.2338                22.3487                 8.9905
 IR Inten    --    143.3501               144.1105                86.1062

 - Thermochemistry -
 -------------------
 Temperature   298.150 Kelvin.  Pressure   1.00000 Atm.
 Atom     1 has atomic number  1 and mass   1.00783

 Molecular mass:    62.99564 amu.
 Principal axes and moments of inertia in atomic units:
                           1         2         3
     Eigenvalues --    32.74213 360.68500 393.42713
           X            0.81170  -0.58407   0.00000
           Y            0.58407   0.81170   0.00000
           Z           -0.00000   0.00000   1.00000
 This molecule is an asymmetric top.
 Rotational symmetry number  1.
 Rotational temperatures (Kelvin)      2.64534     0.24014     0.22015
 Rotational constants (GHZ):          55.11985     5.00365     4.58723
    1 imaginary frequencies ignored.
 Zero-point vibrational energy      57345.7 (Joules/Mol)
                                   13.70594 (Kcal/Mol)
 Warning -- explicit consideration of   3 degrees of freedom as
           vibrations may cause significant error
 Vibrational temperatures:    340.04   496.49   647.25  1126.63  1384.91
          (Kelvin)           1948.58  2412.48  5437.82

 Zero-point correction=                           0.021842 (Hartree/Particle)
 Thermal correction to Energy=                    0.025948
 Thermal correction to Enthalpy=                  0.026893
 Thermal correction to Gibbs Free Energy=        -0.004262
 Sum of electronic and zero-point Energies=           -280.424662
 Sum of electronic and thermal Energies=              -280.420556
 Sum of electronic and thermal Enthalpies=            -280.419611
 Sum of electronic and thermal Free Energies=         -280.450766

                     E (Thermal)             CV                S
                      KCal/Mol        Cal/Mol-Kelvin    Cal/Mol-Kelvin
 Total                   16.283             11.956             65.569
 Electronic               0.000              0.000              0.000
 Translational            0.889              2.981             38.341
 Rotational               0.889              2.981             23.056
 Vibrational             14.505              5.994              4.173
 Vibration     1          0.655              1.785              1.830
 Vibration     2          0.723              1.585              1.189
 Vibration     3          0.809              1.361              0.796

                       ! Non-Optimized Parameters !

 1\1\GINC-N2129\Freq\RMP2-FC\Aug-CC-pVTZ\H1N1O3\CGAVINH\21-Feb-2022\1\\
 #p freq mp2/aug-cc-pvtz density=current\\title\\0,1\H\O,1,r1\O,2,r2,1,
 a1\N,3,r3,2,a2,1,d1,0\O,4,r4,3,a3,2,d2,0\\r1=0.96897556\r2=1.45491931\
 r3=1.45878406\r4=1.17072885\a1=100.22187546\a2=102.29752444\a3=109.069
 55123\d1=180.\d2=180.\\Version=ES64L-G16RevB.01\State=1-A'\HF=-279.501
 7835\MP2=-280.446504\RMSD=3.820e-09\RMSF=2.315e-03\ZeroPoint=0.0218418
 \Thermal=0.0259483\Dipole=-0.1428992,0.,-0.5626885\DipoleDeriv=0.25744
 27,0.,0.0386561,0.,0.3587632,0.,0.0872185,0.,0.2805174,-0.3101321,0.,-

 Normal termination of Gaussian 16 at Mon Feb 21 20:38:34 2022.
