 Gaussian 16, Revision B.01,
 Gaussian 16:  ES64L-G16RevB.01 20-Dec-2017

 ---------------------------------------
 #p freq mp2/aug-cc-pvtz density=current
 ---------------------------------------

 -----
 title
 -----
 Symbolic Z-matrix:
 Charge =  0 Multiplicity = 1

                         Standard orientation:
 ---------------------------------------------------------------------
 Center     Atomic      Atomic             Coordinates (Angstroms)
 Number     Number       Type             X           Y           Z
 ---------------------------------------------------------------------
      1          1           0        1.548387    1.680462    0.000000
      2          8           0        1.454062    0.723179    0.000000
      3          8           0        0.000000    0.673228   -0.000000
      4          7           0       -0.261586   -0.761910   -0.000000
      5          8           0       -1.418722   -0.939794   -0.000000
 ---------------------------------------------------------------------

 SCF Done:  E(RHF) =  -279.501978421     A.U. after   14 cycles
 E2 =    -0.9447100584D+00 EUMP2 =    -0.28044668847979D+03
 E2 =    -0.9447100584D+00 EUMP2 =    -0.28044668847979D+03

 The electronic state is 1-A'.
 Alpha  occ. eigenvalues --  -20.69107 -20.68443 -20.65943 -15.81298  -1.62420
 Alpha  occ. eigenvalues --   -1.49663  -1.25580  -0.94823  -0.77338  -0.75975
 Alpha  occ. eigenvalues --   -0.71196  -0.68045  -0.62067  -0.58977  -0.48547
 Alpha  occ. eigenvalues --   -0.47269
 Alpha virt. eigenvalues --    0.02976   0.07156   0.08591   0.10170   0.13390
 Alpha virt. eigenvalues --    0.13394   0.14437   0.15480   0.17816   0.19416
 Alpha virt. eigenvalues --    0.19978   0.20637   0.22079   0.23523   0.23731

 Mulliken charges:
               1
     1  H    0.244291
     2  O   -0.195628
     3  O   -0.147620
     4  N    0.292220
     5  O   -0.193263
 Sum of Mulliken charges =  -0.00000

 Dipole moment (field-independent basis, Debye):
    X=              0.5045    Y=              1.3517    Z=             -0.0000  Tot=              1.4428
 Quadrupole moment (field-independent basis, Debye-Ang):
   XX=            -22.4659   YY=            -18.6431   ZZ=            -22.0014
   XY=              3.2420   XZ=             -0.0000   YZ=              0.0000

  Exact polarizability:  33.969   9.439  30.155   0.000  -0.000  17.910
 Approx polarizability:  28.988   5.096  23.447   0.000   0.000  15.510

 ******    1 imaginary frequencies (negative Signs) ******

                      1                      2                      3
                     A"                     A"                     A'
 Frequencies --   -417.3200               228.3693               334.3875
 Red. masses --      1.1249                11.7967                 8.3029
 Frc consts  --      0.1154                 0.3625                 0.5470
 IR Inten    --    126.0635                 0.2164                 5.1617

                      4                      5                      6
                     A'                     A'                     A'
 Frequencies --    451.7745               782.7058               966.8022
 Red. masses --     12.3077                12.5764                15.5370
 Frc consts  --      1.4800                 4.5394                 8.5564
 IR Inten    --    199.2646               165.5250                24.2455

                      7                      8                      9
                     A'                     A'                     A'
 Frequencies --   1347.7724              1677.1888              3871.0472
 Red. masses --      1.1397                13.3629                 1.0675
 Frc consts  --      1.2197                22.1470                 9.4251
 IR Inten    --    154.1556               141.7985                83.4071

 - Thermochemistry -
 -------------------
 Temperature   298.150 Kelvin.  Pressure   1.00000 Atm.
 Atom     1 has atomic number  1 and mass   1.00783

 Molecular mass:    62.99564 amu.
 Principal axes and moments of inertia in atomic units:
                           1         2         3
     Eigenvalues --    32.82270 360.06993 392.89263
           X            0.81023  -0.58612   0.00000
           Y            0.58612   0.81023   0.00000
           Z           -0.00000   0.00000   1.00000
 This molecule is an asymmetric top.
 Rotational symmetry number  1.
 Rotational temperatures (Kelvin)      2.63884     0.24055     0.22045
 Rotational constants (GHZ):          54.98455     5.01220     4.59347
    1 imaginary frequencies ignored.
 Zero-point vibrational energy      57779.9 (Joules/Mol)
                                   13.80973 (Kcal/Mol)
 Warning -- explicit consideration of   3 degrees of freedom as
           vibrations may cause significant error
 Vibrational temperatures:    328.57   481.11   650.00  1126.14  1391.01
          (Kelvin)           1939.14  2413.10  5569.57

 Zero-point correction=                           0.022007 (Hartree/Particle)
 Thermal correction to Energy=                    0.026136
 Thermal correction to Enthalpy=                  0.027080
 Thermal correction to Gibbs Free Energy=        -0.004124
 Sum of electronic and zero-point Energies=           -280.424681
 Sum of electronic and thermal Energies=              -280.420553
 Sum of electronic and thermal Enthalpies=            -280.419609
 Sum of electronic and thermal Free Energies=         -280.450813

                     E (Thermal)             CV                S
                      KCal/Mol        Cal/Mol-Kelvin    Cal/Mol-Kelvin
 Total                   16.400             11.984             65.674
 Electronic               0.000              0.000              0.000
 Translational            0.889              2.981             38.341
 Rotational               0.889              2.981             23.056
 Vibrational             14.623              6.022              4.278
 Vibration     1          0.651              1.798              1.892
 Vibration     2          0.716              1.607              1.239
 Vibration     3          0.810              1.357              0.790

                       ! Non-Optimized Parameters !

 1\1\GINC-N2228\Freq\RMP2-FC\Aug-CC-pVTZ\H1N1O3\CGAVINH\21-Feb-2022\1\\
 #p freq mp2/aug-cc-pvtz density=current\\title\\0,1\H\O,1,r1\O,2,r2,1,
 a1\N,3,r3,2,a2,1,d1,0\O,4,r4,3,a3,2,d2,0\\r1=0.96191831\r2=1.45491931\
 r3=1.45878406\r4=1.17072885\a1=97.59494903\a2=102.29752444\a3=109.0695
 5123\d1=180.\d2=180.\\Version=ES64L-G16RevB.01\State=1-A'\HF=-279.5019
 784\MP2=-280.4466885\RMSD=3.789e-09\RMSF=2.571e-03\ZeroPoint=0.0220072
 \Thermal=0.0261355\Dipole=-0.1453841,0.,-0.5487176\DipoleDeriv=0.26549
 41,0.,0.0484862,0.,0.3565404,0.,0.0835287,0.,0.2765509,-0.3280974,0.,-

 Normal termination of Gaussian 16 at Mon Feb 21 20:03:54 2022.
