 Gaussian 16, Revision B.01,
 Gaussian 16:  ES64L-G16RevB.01 20-Dec-2017

 ---------------------------------------
 #p freq mp2/aug-cc-pvtz density=current
 ---------------------------------------

 -----
 title
 -----
 Symbolic Z-matrix:
 Charge =  0 Multiplicity = 1

                         Standard orientation:
 ---------------------------------------------------------------------
 Center     Atomic      Atomic             Coordinates (Angstroms)
 Number     Number       Type             X           Y           Z
 ---------------------------------------------------------------------
      1          1           0        1.550000    1.695488   -0.000000
      2          8           0        1.454065    0.722587    0.000000
      3          8           0        0.000000    0.672740   -0.000000
      4          7           0       -0.261689   -0.762380    0.000000
      5          8           0       -1.418837   -0.940181   -0.000000
 ---------------------------------------------------------------------

 SCF Done:  E(RHF) =  -279.501207169     A.U. after   14 cycles
 E2 =    -0.9454605414D+00 EUMP2 =    -0.28044666770988D+03
 E2 =    -0.9454605414D+00 EUMP2 =    -0.28044666770988D+03

 The electronic state is 1-A'.
 Alpha  occ. eigenvalues --  -20.69065 -20.68413 -20.66065 -15.81266  -1.62383
 Alpha  occ. eigenvalues --   -1.49470  -1.25274  -0.94787  -0.77210  -0.75848
 Alpha  occ. eigenvalues --   -0.71159  -0.67804  -0.62020  -0.58901  -0.48493
 Alpha  occ. eigenvalues --   -0.47227
 Alpha virt. eigenvalues --    0.02946   0.07181   0.08598   0.10174   0.13396
 Alpha virt. eigenvalues --    0.13402   0.14370   0.15422   0.17838   0.19420
 Alpha virt. eigenvalues --    0.19984   0.20636   0.22084   0.23566   0.23746

 Mulliken charges:
               1
     1  H    0.257201
     2  O   -0.208537
     3  O   -0.146584
     4  N    0.291161
     5  O   -0.193240
 Sum of Mulliken charges =  -0.00000

 Dipole moment (field-independent basis, Debye):
    X=              0.5128    Y=              1.3718    Z=             -0.0000  Tot=              1.4645
 Quadrupole moment (field-independent basis, Debye-Ang):
   XX=            -22.4729   YY=            -18.5821   ZZ=            -22.0212
   XY=              3.2731   XZ=              0.0000   YZ=              0.0000

  Exact polarizability:  34.042   9.512  30.373  -0.000  -0.000  17.949
 Approx polarizability:  29.031   5.117  23.611   0.000  -0.000  15.536

                      1                      2                      3
                     A"                     A"                     A'
 Frequencies --    193.1091               242.7057               348.2197
 Red. masses --      1.8768                 2.2754                 8.9436
 Frc consts  --      0.0412                 0.0790                 0.6390
 IR Inten    --     82.3030                42.2694                 3.9893

                      4                      5                      6
                     A'                     A'                     A'
 Frequencies --    451.5162               788.0891               967.6997
 Red. masses --     12.3252                13.2501                15.2184
 Frc consts  --      1.4804                 4.8487                 8.3966
 IR Inten    --    200.2755               176.2304                21.1271

                      7                      8                      9
                     A'                     A'                     A'
 Frequencies --   1397.3752              1677.5219              3668.0817
 Red. masses --      1.1282                13.0039                 1.0676
 Frc consts  --      1.2979                21.5606                 8.4630
 IR Inten    --    152.1683               138.7639                81.4533

 - Thermochemistry -
 -------------------
 Temperature   298.150 Kelvin.  Pressure   1.00000 Atm.
 Atom     1 has atomic number  1 and mass   1.00783

 Molecular mass:    62.99564 amu.
 Principal axes and moments of inertia in atomic units:
                           1         2         3
     Eigenvalues --    32.86218 360.24074 393.10292
           X            0.81006  -0.58634   0.00000
           Y            0.58634   0.81006   0.00000
           Z            0.00000  -0.00000   1.00000
 This molecule is an asymmetric top.
 Rotational symmetry number  1.
 Rotational temperatures (Kelvin)      2.63567     0.24043     0.22033
 Rotational constants (GHZ):          54.91849     5.00982     4.59101
 Zero-point vibrational energy      58224.2 (Joules/Mol)
                                   13.91591 (Kcal/Mol)
 Warning -- explicit consideration of   4 degrees of freedom as
           vibrations may cause significant error
 Vibrational temperatures:    277.84   349.20   501.01   649.63  1133.88
          (Kelvin)           1392.30  2010.51  2413.58  5277.55

 Zero-point correction=                           0.022176 (Hartree/Particle)
 Thermal correction to Energy=                    0.026837
 Thermal correction to Enthalpy=                  0.027781
 Thermal correction to Gibbs Free Energy=        -0.004382
 Sum of electronic and zero-point Energies=           -280.424491
 Sum of electronic and thermal Energies=              -280.419831
 Sum of electronic and thermal Enthalpies=            -280.418887
 Sum of electronic and thermal Free Energies=         -280.451050

                     E (Thermal)             CV                S
                      KCal/Mol        Cal/Mol-Kelvin    Cal/Mol-Kelvin
 Total                   16.840             13.753             67.692
 Electronic               0.000              0.000              0.000
 Translational            0.889              2.981             38.341
 Rotational               0.889              2.981             23.058
 Vibrational             15.063              7.792              6.294
 Vibration     1          0.635              1.849              2.198
 Vibration     2          0.659              1.775              1.783
 Vibration     3          0.726              1.579              1.174
 Vibration     4          0.810              1.358              0.791

                       ! Non-Optimized Parameters !

 1\1\GINC-N2109\Freq\RMP2-FC\Aug-CC-pVTZ\H1N1O3\CGAVINH\21-Feb-2022\1\\
 #p freq mp2/aug-cc-pvtz density=current\\title\\0,1\H\O,1,r1\O,2,r2,1,
 a1\N,3,r3,2,a2,1,d1,0\O,4,r4,3,a3,2,d2,0\\r1=0.97761889\r2=1.45491931\
 r3=1.45878406\r4=1.17072885\a1=97.59494903\a2=102.29752444\a3=109.0695
 5123\d1=180.\d2=180.\\Version=ES64L-G16RevB.01\State=1-A'\HF=-279.5012
 072\MP2=-280.4466677\RMSD=3.792e-09\RMSF=2.945e-03\ZeroPoint=0.0221764
 \Thermal=0.0268366\Dipole=-0.1478166,0.,-0.5568904\DipoleDeriv=0.26741
 27,0.,0.0480345,0.,0.3543601,0.,0.0804457,0.,0.2743322,-0.3280541,0.,-

 Normal termination of Gaussian 16 at Mon Feb 21 20:01:52 2022.
