 Gaussian 16, Revision B.01,
 Gaussian 16:  ES64L-G16RevB.01 20-Dec-2017

 ---------------------------------------
 #p freq mp2/aug-cc-pvtz density=current
 ---------------------------------------

 -----
 title
 -----
 Symbolic Z-matrix:
 Charge =  0 Multiplicity = 1

                         Standard orientation:
 ---------------------------------------------------------------------
 Center     Atomic      Atomic             Coordinates (Angstroms)
 Number     Number       Type             X           Y           Z
 ---------------------------------------------------------------------
      1          1           0        1.550483    1.690731    0.000000
      2          8           0        1.454129    0.726558    0.000000
      3          8           0        0.000000    0.678622    0.000000
      4          7           0       -0.263575   -0.756153   -0.000000
      5          8           0       -1.417312   -0.954888   -0.000000
 ---------------------------------------------------------------------

 SCF Done:  E(RHF) =  -279.501513004     A.U. after   14 cycles
 E2 =    -0.9451306115D+00 EUMP2 =    -0.28044664361566D+03
 E2 =    -0.9451306115D+00 EUMP2 =    -0.28044664361566D+03

 The electronic state is 1-A'.
 Alpha  occ. eigenvalues --  -20.69135 -20.68468 -20.66068 -15.81244  -1.62312
 Alpha  occ. eigenvalues --   -1.49655  -1.25530  -0.94778  -0.77337  -0.75881
 Alpha  occ. eigenvalues --   -0.71159  -0.67966  -0.62089  -0.59038  -0.48574
 Alpha  occ. eigenvalues --   -0.47112
 Alpha virt. eigenvalues --    0.02954   0.07214   0.08572   0.10173   0.13402
 Alpha virt. eigenvalues --    0.13402   0.14404   0.15461   0.17814   0.19422
 Alpha virt. eigenvalues --    0.19977   0.20614   0.22081   0.23433   0.23723

 Mulliken charges:
               1
     1  H    0.250295
     2  O   -0.199204
     3  O   -0.148691
     4  N    0.290458
     5  O   -0.192857
 Sum of Mulliken charges =  -0.00000

 Dipole moment (field-independent basis, Debye):
    X=              0.5048    Y=              1.3750    Z=              0.0000  Tot=              1.4647
 Quadrupole moment (field-independent basis, Debye-Ang):
   XX=            -22.4335   YY=            -18.6230   ZZ=            -22.0160
   XY=              3.2832   XZ=             -0.0000   YZ=             -0.0000

  Exact polarizability:  34.029   9.575  30.422   0.000   0.000  17.948
 Approx polarizability:  28.975   5.249  23.637   0.000   0.000  15.532

 ******    1 imaginary frequencies (negative Signs) ******

                      1                      2                      3
                     A"                     A"                     A'
 Frequencies --   -272.8642               227.4607               340.7819
 Red. masses --      1.1433                10.0847                 8.5775
 Frc consts  --      0.0502                 0.3074                 0.5869
 IR Inten    --    124.4196                 1.0821                 6.4222

                      4                      5                      6
                     A'                     A'                     A'
 Frequencies --    442.2966               786.8159               966.2903
 Red. masses --     12.4594                12.9056                15.3124
 Frc consts  --      1.4361                 4.7073                 8.4238
 IR Inten    --    199.1436               175.2596                24.6338

                      7                      8                      9
                     A'                     A'                     A'
 Frequencies --   1371.0221              1676.9890              3778.8940
 Red. masses --      1.1336                13.1585                 1.0676
 Frc consts  --      1.2555                21.8030                 8.9819
 IR Inten    --    155.0916               143.6773                83.4166

 - Thermochemistry -
 -------------------
 Temperature   298.150 Kelvin.  Pressure   1.00000 Atm.
 Atom     1 has atomic number  1 and mass   1.00783

 Molecular mass:    62.99564 amu.
 Principal axes and moments of inertia in atomic units:
                           1         2         3
     Eigenvalues --    32.66701 362.09910 394.76611
           X            0.80756  -0.58978   0.00000
           Y            0.58978   0.80756   0.00000
           Z            0.00000  -0.00000   1.00000
 This molecule is an asymmetric top.
 Rotational symmetry number  1.
 Rotational temperatures (Kelvin)      2.65142     0.23920     0.21941
 Rotational constants (GHZ):          55.24660     4.98411     4.57167
    1 imaginary frequencies ignored.
 Zero-point vibrational energy      57364.2 (Joules/Mol)
                                   13.71038 (Kcal/Mol)
 Warning -- explicit consideration of   3 degrees of freedom as
           vibrations may cause significant error
 Vibrational temperatures:    327.27   490.31   636.37  1132.05  1390.28
          (Kelvin)           1972.59  2412.81  5436.99

 Zero-point correction=                           0.021849 (Hartree/Particle)
 Thermal correction to Energy=                    0.025977
 Thermal correction to Enthalpy=                  0.026922
 Thermal correction to Gibbs Free Energy=        -0.004285
 Sum of electronic and zero-point Energies=           -280.424795
 Sum of electronic and thermal Energies=              -280.420666
 Sum of electronic and thermal Enthalpies=            -280.419722
 Sum of electronic and thermal Free Energies=         -280.450929

                     E (Thermal)             CV                S
                      KCal/Mol        Cal/Mol-Kelvin    Cal/Mol-Kelvin
 Total                   16.301             11.978             65.680
 Electronic               0.000              0.000              0.000
 Translational            0.889              2.981             38.341
 Rotational               0.889              2.981             23.061
 Vibrational             14.524              6.016              4.278
 Vibration     1          0.651              1.799              1.899
 Vibration     2          0.720              1.594              1.208
 Vibration     3          0.802              1.378              0.819

                       ! Non-Optimized Parameters !

 1\1\GINC-N2110\Freq\RMP2-FC\Aug-CC-pVTZ\H1N1O3\CGAVINH\21-Feb-2022\1\\
 #p freq mp2/aug-cc-pvtz density=current\\title\\0,1\H\O,1,r1\O,2,r2,1,
 a1\N,3,r3,2,a2,1,d1,0\O,4,r4,3,a3,2,d2,0\\r1=0.96897556\r2=1.45491931\
 r3=1.45878406\r4=1.17072885\a1=97.59494903\a2=102.29752444\a3=110.1829
 0238\d1=180.\d2=180.\\Version=ES64L-G16RevB.01\State=1-A'\HF=-279.5015
 13\MP2=-280.4466436\RMSD=3.844e-09\RMSF=2.074e-03\ZeroPoint=0.0218489\
 Thermal=0.0259774\Dipole=-0.1438195,0.,-0.558027\DipoleDeriv=0.2669854
 ,0.,0.0486136,0.,0.3557586,0.,0.0830588,0.,0.2772614,-0.3258155,0.,-0.

 Normal termination of Gaussian 16 at Mon Feb 21 20:54:47 2022.
