 Gaussian 16, Revision B.01,
 Gaussian 16:  ES64L-G16RevB.01 20-Dec-2017

 ---------------------------------------
 #p freq mp2/aug-cc-pvtz density=current
 ---------------------------------------

 -----
 title
 -----
 Symbolic Z-matrix:
 Charge =  0 Multiplicity = 1

                         Standard orientation:
 ---------------------------------------------------------------------
 Center     Atomic      Atomic             Coordinates (Angstroms)
 Number     Number       Type             X           Y           Z
 ---------------------------------------------------------------------
      1          1           0        1.552667    1.669039   -0.000000
      2          8           0        1.454230    0.705077   -0.000000
      3          8           0       -0.000000    0.660283   -0.000000
      4          7           0       -0.261628   -0.746780    0.000000
      5          8           0       -1.419388   -0.920558    0.000000
 ---------------------------------------------------------------------

 SCF Done:  E(RHF) =  -279.504140369     A.U. after   14 cycles
 E2 =    -0.9424275705D+00 EUMP2 =    -0.28044656793945D+03
 E2 =    -0.9424275705D+00 EUMP2 =    -0.28044656793945D+03

 The electronic state is 1-A'.
 Alpha  occ. eigenvalues --  -20.69556 -20.67769 -20.66335 -15.80842  -1.62606
 Alpha  occ. eigenvalues --   -1.49943  -1.26277  -0.94612  -0.77506  -0.76259
 Alpha  occ. eigenvalues --   -0.71684  -0.67795  -0.61898  -0.59083  -0.48797
 Alpha  occ. eigenvalues --   -0.47346
 Alpha virt. eigenvalues --    0.02887   0.07525   0.08642   0.10201   0.13371
 Alpha virt. eigenvalues --    0.13407   0.14352   0.15399   0.17765   0.19420
 Alpha virt. eigenvalues --    0.19996   0.20963   0.21995   0.23418   0.23773

 Mulliken charges:
               1
     1  H    0.250473
     2  O   -0.199707
     3  O   -0.128934
     4  N    0.283443
     5  O   -0.205275
 Sum of Mulliken charges =  -0.00000

 Dipole moment (field-independent basis, Debye):
    X=              0.6347    Y=              1.5178    Z=             -0.0000  Tot=              1.6452
 Quadrupole moment (field-independent basis, Debye-Ang):
   XX=            -22.5169   YY=            -18.7319   ZZ=            -21.9705
   XY=              3.2037   XZ=              0.0000   YZ=             -0.0000

  Exact polarizability:  34.027   9.316  29.687  -0.000  -0.000  17.836
 Approx polarizability:  28.884   4.929  22.924  -0.000  -0.000  15.479

 ******    1 imaginary frequencies (negative Signs) ******

                      1                      2                      3
                     A"                     A"                     A'
 Frequencies --   -261.7909               217.0298               350.2674
 Red. masses --      1.1460                10.1109                 8.6670
 Frc consts  --      0.0463                 0.2806                 0.6265
 IR Inten    --    123.9973                 0.9317                 2.3813

                      4                      5                      6
                     A'                     A'                     A'
 Frequencies --    507.7695               807.3226               971.4711
 Red. masses --     12.2883                12.5051                15.2264
 Frc consts  --      1.8667                 4.8021                 8.4666
 IR Inten    --    166.4627               195.9633                26.1429

                      7                      8                      9
                     A'                     A'                     A'
 Frequencies --   1376.6076              1690.5349              3779.2830
 Red. masses --      1.1379                13.1160                 1.0675
 Frc consts  --      1.2705                22.0851                 8.9836
 IR Inten    --    158.0269               127.8381                82.0069

 - Thermochemistry -
 -------------------
 Temperature   298.150 Kelvin.  Pressure   1.00000 Atm.
 Atom     1 has atomic number  1 and mass   1.00783

 Molecular mass:    62.99564 amu.
 Principal axes and moments of inertia in atomic units:
                           1         2         3
     Eigenvalues --    32.13377 355.15890 387.29267
           X            0.81716  -0.57641   0.00000
           Y            0.57641   0.81716   0.00000
           Z           -0.00000   0.00000   1.00000
 This molecule is an asymmetric top.
 Rotational symmetry number  1.
 Rotational temperatures (Kelvin)      2.69542     0.24387     0.22364
 Rotational constants (GHZ):          56.16339     5.08150     4.65989
    1 imaginary frequencies ignored.
 Zero-point vibrational energy      58020.6 (Joules/Mol)
                                   13.86726 (Kcal/Mol)
 Warning -- explicit consideration of   3 degrees of freedom as
           vibrations may cause significant error
 Vibrational temperatures:    312.26   503.96   730.57  1161.56  1397.73
          (Kelvin)           1980.63  2432.30  5437.55

 Zero-point correction=                           0.022099 (Hartree/Particle)
 Thermal correction to Energy=                    0.026173
 Thermal correction to Enthalpy=                  0.027117
 Thermal correction to Gibbs Free Energy=        -0.003988
 Sum of electronic and zero-point Energies=           -280.424469
 Sum of electronic and thermal Energies=              -280.420395
 Sum of electronic and thermal Enthalpies=            -280.419451
 Sum of electronic and thermal Free Energies=         -280.450556

                     E (Thermal)             CV                S
                      KCal/Mol        Cal/Mol-Kelvin    Cal/Mol-Kelvin
 Total                   16.424             11.785             65.466
 Electronic               0.000              0.000              0.000
 Translational            0.889              2.981             38.341
 Rotational               0.889              2.981             23.007
 Vibrational             14.646              5.823              4.119
 Vibration     1          0.646              1.815              1.984
 Vibration     2          0.727              1.575              1.165
 Vibration     3          0.863              1.233              0.639

                       ! Non-Optimized Parameters !

 1\1\GINC-N2127\Freq\RMP2-FC\Aug-CC-pVTZ\H1N1O3\CGAVINH\21-Feb-2022\1\\
 #p freq mp2/aug-cc-pvtz density=current\\title\\0,1\H\O,1,r1\O,2,r2,1,
 a1\N,3,r3,2,a2,1,d1,0\O,4,r4,3,a3,2,d2,0\\r1=0.96897556\r2=1.45491931\
 r3=1.43117971\r4=1.17072885\a1=97.59494903\a2=102.29752444\a3=109.0695
 5123\d1=180.\d2=180.\\Version=ES64L-G16RevB.01\State=1-A'\HF=-279.5041
 404\MP2=-280.4465679\RMSD=3.446e-09\RMSF=3.279e-03\ZeroPoint=0.0220989
 \Thermal=0.0261732\Dipole=-0.187745,0.,-0.6194397\DipoleDeriv=0.268713
 3,0.,0.050858,0.,0.3563585,0.,0.0820448,0.,0.2752606,-0.3235046,0.,-0.

 Normal termination of Gaussian 16 at Mon Feb 21 20:24:50 2022.
