 Gaussian 16, Revision B.01,
 Gaussian 16:  ES64L-G16RevB.01 20-Dec-2017

 ---------------------------------------
 #p freq mp2/aug-cc-pvtz density=current
 ---------------------------------------

 -----
 title
 -----
 Symbolic Z-matrix:
 Charge =  0 Multiplicity = 1

                         Standard orientation:
 ---------------------------------------------------------------------
 Center     Atomic      Atomic             Coordinates (Angstroms)
 Number     Number       Type             X           Y           Z
 ---------------------------------------------------------------------
      1          1           0        1.574430    1.682842    0.000000
      2          8           0        1.454118    0.721365    0.000000
      3          8           0        0.000000    0.673093    0.000000
      4          7           0       -0.263243   -0.761742   -0.000000
      5          8           0       -1.420584   -0.938289   -0.000000
 ---------------------------------------------------------------------

 SCF Done:  E(RHF) =  -279.501803808     A.U. after   14 cycles
 E2 =    -0.9448599500D+00 EUMP2 =    -0.28044666375781D+03
 E2 =    -0.9448599500D+00 EUMP2 =    -0.28044666375781D+03

 The electronic state is 1-A'.
 Alpha  occ. eigenvalues --  -20.69108 -20.68434 -20.65937 -15.81289  -1.62399
 Alpha  occ. eigenvalues --   -1.49487  -1.25461  -0.94802  -0.77210  -0.76010
 Alpha  occ. eigenvalues --   -0.71165  -0.67973  -0.62020  -0.58806  -0.48504
 Alpha  occ. eigenvalues --   -0.47250
 Alpha virt. eigenvalues --    0.02947   0.07172   0.08595   0.10177   0.13382
 Alpha virt. eigenvalues --    0.13403   0.14409   0.15446   0.17830   0.19432
 Alpha virt. eigenvalues --    0.19993   0.20630   0.22087   0.23542   0.23739

 Mulliken charges:
               1
     1  H    0.248420
     2  O   -0.201657
     3  O   -0.145996
     4  N    0.292326
     5  O   -0.193093
 Sum of Mulliken charges =  -0.00000

 Dipole moment (field-independent basis, Debye):
    X=              0.5410    Y=              1.3621    Z=              0.0000  Tot=              1.4656
 Quadrupole moment (field-independent basis, Debye-Ang):
   XX=            -22.3462   YY=            -18.6346   ZZ=            -22.0128
   XY=              3.3397   XZ=             -0.0000   YZ=             -0.0000

  Exact polarizability:  34.086   9.519  30.251   0.000   0.000  17.941
 Approx polarizability:  29.021   5.143  23.504   0.000   0.000  15.529

 ******    1 imaginary frequencies (negative Signs) ******

                      1                      2                      3
                     A"                     A"                     A'
 Frequencies --   -285.9040               232.7821               343.4783
 Red. masses --      1.1584                 9.0489                 8.5434
 Frc consts  --      0.0558                 0.2889                 0.5939
 IR Inten    --    124.9884                 1.9174                 4.0641

                      4                      5                      6
                     A'                     A'                     A'
 Frequencies --    450.6788               784.1179               964.8449
 Red. masses --     12.1817                12.9181                14.9281
 Frc consts  --      1.4578                 4.6796                 8.1879
 IR Inten    --    201.0709               171.6423                21.9176

                      7                      8                      9
                     A'                     A'                     A'
 Frequencies --   1362.1042              1677.0186              3779.1463
 Red. masses --      1.1375                13.3694                 1.0679
 Frc consts  --      1.2434                22.1533                 8.9863
 IR Inten    --    147.6039               142.5201                84.4243

 - Thermochemistry -
 -------------------
 Temperature   298.150 Kelvin.  Pressure   1.00000 Atm.
 Atom     1 has atomic number  1 and mass   1.00783

 Molecular mass:    62.99564 amu.
 Principal axes and moments of inertia in atomic units:
                           1         2         3
     Eigenvalues --    32.78637 360.44337 393.22975
           X            0.81100  -0.58505   0.00000
           Y            0.58505   0.81100   0.00000
           Z            0.00000  -0.00000   1.00000
 This molecule is an asymmetric top.
 Rotational symmetry number  1.
 Rotational temperatures (Kelvin)      2.64177     0.24030     0.22026
 Rotational constants (GHZ):          55.04546     5.00700     4.58953
    1 imaginary frequencies ignored.
 Zero-point vibrational energy      57385.9 (Joules/Mol)
                                   13.71556 (Kcal/Mol)
 Warning -- explicit consideration of   3 degrees of freedom as
           vibrations may cause significant error
 Vibrational temperatures:    334.92   494.19   648.43  1128.17  1388.20
          (Kelvin)           1959.76  2412.86  5437.35

 Zero-point correction=                           0.021857 (Hartree/Particle)
 Thermal correction to Energy=                    0.025969
 Thermal correction to Enthalpy=                  0.026913
 Thermal correction to Gibbs Free Energy=        -0.004255
 Sum of electronic and zero-point Energies=           -280.424807
 Sum of electronic and thermal Energies=              -280.420695
 Sum of electronic and thermal Enthalpies=            -280.419751
 Sum of electronic and thermal Free Energies=         -280.450919

                     E (Thermal)             CV                S
                      KCal/Mol        Cal/Mol-Kelvin    Cal/Mol-Kelvin
 Total                   16.296             11.955             65.599
 Electronic               0.000              0.000              0.000
 Translational            0.889              2.981             38.341
 Rotational               0.889              2.981             23.056
 Vibrational             14.518              5.993              4.202
 Vibration     1          0.654              1.791              1.857
 Vibration     2          0.722              1.589              1.196
 Vibration     3          0.809              1.359              0.794

                       ! Non-Optimized Parameters !

 1\1\GINC-N2109\Freq\RMP2-FC\Aug-CC-pVTZ\H1N1O3\CGAVINH\21-Feb-2022\1\\
 #p freq mp2/aug-cc-pvtz density=current\\title\\0,1\H\O,1,r1\O,2,r2,1,
 a1\N,3,r3,2,a2,1,d1,0\O,4,r4,3,a3,2,d2,0\\r1=0.96897556\r2=1.45491931\
 r3=1.45878406\r4=1.17072885\a1=99.03377589\a2=102.29752444\a3=109.0695
 5123\d1=180.\d2=180.\\Version=ES64L-G16RevB.01\State=1-A'\HF=-279.5018
 038\MP2=-280.4466638\RMSD=3.806e-09\RMSF=1.286e-03\ZeroPoint=0.0218571
 \Thermal=0.0259689\Dipole=-0.1446736,0.,-0.5581556\DipoleDeriv=0.26128
 3,0.,0.0430273,0.,0.3572992,0.,0.0849074,0.,0.2782254,-0.3181832,0.,-0

 Normal termination of Gaussian 16 at Mon Feb 21 20:36:59 2022.
