 Gaussian 16, Revision B.01,
 Gaussian 16:  ES64L-G16RevB.01 20-Dec-2017

 ---------------------------------------
 #p freq mp2/aug-cc-pvtz density=current
 ---------------------------------------

 -----
 title
 -----
 Symbolic Z-matrix:
 Charge =  0 Multiplicity = 1

                         Standard orientation:
 ---------------------------------------------------------------------
 Center     Atomic      Atomic             Coordinates (Angstroms)
 Number     Number       Type             X           Y           Z
 ---------------------------------------------------------------------
      1          1           0        1.572554    1.676826    0.000000
      2          8           0        1.470862    0.713201    0.000000
      3          8           0        0.000000    0.672866    0.000000
      4          7           0       -0.271516   -0.760428   -0.000000
      5          8           0       -1.429855   -0.930296   -0.000000
 ---------------------------------------------------------------------

 SCF Done:  E(RHF) =  -279.500188243     A.U. after   14 cycles
 E2 =    -0.9464064350D+00 EUMP2 =    -0.28044659467848D+03
 E2 =    -0.9464064350D+00 EUMP2 =    -0.28044659467848D+03

 The electronic state is 1-A'.
 Alpha  occ. eigenvalues --  -20.69181 -20.68458 -20.66140 -15.81315  -1.62358
 Alpha  occ. eigenvalues --   -1.48930  -1.25733  -0.94784  -0.77109  -0.75788
 Alpha  occ. eigenvalues --   -0.71037  -0.67938  -0.61889  -0.58710  -0.48813
 Alpha  occ. eigenvalues --   -0.47286
 Alpha virt. eigenvalues --    0.02959   0.07165   0.08551   0.10164   0.13308
 Alpha virt. eigenvalues --    0.13397   0.14399   0.15446   0.17829   0.19433
 Alpha virt. eigenvalues --    0.19987   0.20616   0.21752   0.22982   0.23725

 Mulliken charges:
               1
     1  H    0.251201
     2  O   -0.203574
     3  O   -0.147974
     4  N    0.293066
     5  O   -0.192719
 Sum of Mulliken charges =   0.00000

 Dipole moment (field-independent basis, Debye):
    X=              0.5113    Y=              1.3462    Z=             -0.0000  Tot=              1.4400
 Quadrupole moment (field-independent basis, Debye-Ang):
   XX=            -22.3783   YY=            -18.6764   ZZ=            -22.0332
   XY=              3.3072   XZ=             -0.0000   YZ=              0.0000

  Exact polarizability:  34.404   9.497  30.187   0.000  -0.000  17.982
 Approx polarizability:  29.497   5.093  23.484   0.000   0.000  15.549

 ******    1 imaginary frequencies (negative Signs) ******

                      1                      2                      3
                     A"                     A"                     A'
 Frequencies --   -275.4591               234.2489               343.3795
 Red. masses --      1.1413                10.3067                 8.7226
 Frc consts  --      0.0510                 0.3332                 0.6060
 IR Inten    --    124.1503                 0.9139                 2.6695

                      4                      5                      6
                     A'                     A'                     A'
 Frequencies --    446.8362               773.7767               935.5367
 Red. masses --     12.1630                13.1780                14.8571
 Frc consts  --      1.4308                 4.6487                 7.6614
 IR Inten    --    198.9830               162.9628                33.1595

                      7                      8                      9
                     A'                     A'                     A'
 Frequencies --   1352.7489              1676.5038              3780.2552
 Red. masses --      1.1325                13.3849                 1.0676
 Frc consts  --      1.2210                22.1653                 8.9892
 IR Inten    --    151.3905               141.4777                81.7096

 - Thermochemistry -
 -------------------
 Temperature   298.150 Kelvin.  Pressure   1.00000 Atm.
 Atom     1 has atomic number  1 and mass   1.00783

 Molecular mass:    62.99564 amu.
 Principal axes and moments of inertia in atomic units:
                           1         2         3
     Eigenvalues --    33.08225 362.94340 396.02565
           X            0.81614  -0.57785   0.00000
           Y            0.57785   0.81614   0.00000
           Z           -0.00000   0.00000   1.00000
 This molecule is an asymmetric top.
 Rotational symmetry number  1.
 Rotational temperatures (Kelvin)      2.61814     0.23864     0.21871
 Rotational constants (GHZ):          54.55316     4.97251     4.55713
    1 imaginary frequencies ignored.
 Zero-point vibrational energy      57081.5 (Joules/Mol)
                                   13.64281 (Kcal/Mol)
 Warning -- explicit consideration of   3 degrees of freedom as
           vibrations may cause significant error
 Vibrational temperatures:    337.03   494.05   642.90  1113.29  1346.03
          (Kelvin)           1946.30  2412.12  5438.94

 Zero-point correction=                           0.021741 (Hartree/Particle)
 Thermal correction to Energy=                    0.025863
 Thermal correction to Enthalpy=                  0.026807
 Thermal correction to Gibbs Free Energy=        -0.004384
 Sum of electronic and zero-point Energies=           -280.424853
 Sum of electronic and thermal Energies=              -280.420732
 Sum of electronic and thermal Enthalpies=            -280.419788
 Sum of electronic and thermal Free Energies=         -280.450978

                     E (Thermal)             CV                S
                      KCal/Mol        Cal/Mol-Kelvin    Cal/Mol-Kelvin
 Total                   16.229             12.019             65.646
 Electronic               0.000              0.000              0.000
 Translational            0.889              2.981             38.341
 Rotational               0.889              2.981             23.079
 Vibrational             14.452              6.057              4.226
 Vibration     1          0.654              1.788              1.846
 Vibration     2          0.722              1.589              1.196
 Vibration     3          0.806              1.368              0.805

                       ! Non-Optimized Parameters !

 1\1\GINC-N2125\Freq\RMP2-FC\Aug-CC-pVTZ\H1N1O3\CGAVINH\21-Feb-2022\1\\
 #p freq mp2/aug-cc-pvtz density=current\\title\\0,1\H\O,1,r1\O,2,r2,1,
 a1\N,3,r3,2,a2,1,d1,0\O,4,r4,3,a3,2,d2,0\\r1=0.96897556\r2=1.47141526\
 r3=1.45878406\r4=1.17072885\a1=97.59494903\a2=102.29752444\a3=109.0695
 5123\d1=180.\d2=180.\\Version=ES64L-G16RevB.01\State=1-A'\HF=-279.5001
 882\MP2=-280.4465947\RMSD=3.957e-09\RMSF=2.857e-03\ZeroPoint=0.0217412
 \Thermal=0.0258628\Dipole=-0.1444556,0.,-0.5478057\DipoleDeriv=0.26602
 46,0.,0.0473344,0.,0.3548468,0.,0.0844533,0.,0.2734077,-0.3277832,0.,-

 Normal termination of Gaussian 16 at Mon Feb 21 20:11:20 2022.
