 Gaussian 16, Revision B.01,
 Gaussian 16:  ES64L-G16RevB.01 20-Dec-2017

 ---------------------------------------
 #p freq mp2/aug-cc-pvtz density=current
 ---------------------------------------

 -----
 title
 -----
 Symbolic Z-matrix:
 Charge =  0 Multiplicity = 1

                         Standard orientation:
 ---------------------------------------------------------------------
 Center     Atomic      Atomic             Coordinates (Angstroms)
 Number     Number       Type             X           Y           Z
 ---------------------------------------------------------------------
      1          1           0        1.547492    1.672113    0.000000
      2          8           0        1.454060    0.723508   -0.000000
      3          8           0       -0.000000    0.673500    0.000000
      4          7           0       -0.261529   -0.761650   -0.000000
      5          8           0       -1.418658   -0.939579   -0.000000
 ---------------------------------------------------------------------

 SCF Done:  E(RHF) =  -279.502203657     A.U. after   14 cycles
 E2 =    -0.9442949250D+00 EUMP2 =    -0.28044649858234D+03
 E2 =    -0.9442949250D+00 EUMP2 =    -0.28044649858234D+03

 The electronic state is 1-A'.
 Alpha  occ. eigenvalues --  -20.69131 -20.68460 -20.65873 -15.81316  -1.62440
 Alpha  occ. eigenvalues --   -1.49775  -1.25755  -0.94844  -0.77416  -0.76042
 Alpha  occ. eigenvalues --   -0.71217  -0.68175  -0.62093  -0.59019  -0.48577
 Alpha  occ. eigenvalues --   -0.47293
 Alpha virt. eigenvalues --    0.02992   0.07143   0.08587   0.10167   0.13384
 Alpha virt. eigenvalues --    0.13392   0.14470   0.15514   0.17802   0.19413
 Alpha virt. eigenvalues --    0.19976   0.20637   0.22076   0.23498   0.23723

 Mulliken charges:
               1
     1  H    0.236543
     2  O   -0.187915
     3  O   -0.148166
     4  N    0.292810
     5  O   -0.193272
 Sum of Mulliken charges =  -0.00000

 Dipole moment (field-independent basis, Debye):
    X=              0.4998    Y=              1.3406    Z=              0.0000  Tot=              1.4307
 Quadrupole moment (field-independent basis, Debye-Ang):
   XX=            -22.4620   YY=            -18.6766   ZZ=            -21.9904
   XY=              3.2247   XZ=              0.0000   YZ=             -0.0000

  Exact polarizability:  33.928   9.399  30.036   0.000   0.000  17.889
 Approx polarizability:  28.965   5.085  23.359  -0.000   0.000  15.496

 ******    1 imaginary frequencies (negative Signs) ******

                      1                      2                      3
                     A"                     A"                     A'
 Frequencies --   -556.3003               228.2199               323.5726
 Red. masses --      1.1189                12.3773                 7.8569
 Frc consts  --      0.2040                 0.3798                 0.4847
 IR Inten    --    127.1762                 0.0746                 5.9510

                      4                      5                      6
                     A'                     A'                     A'
 Frequencies --    451.9189               778.5844               966.0497
 Red. masses --     12.2972                12.0421                15.6949
 Frc consts  --      1.4797                 4.3009                 8.6299
 IR Inten    --    198.6636               157.8033                26.8797

                      7                      8                      9
                     A'                     A'                     A'
 Frequencies --   1315.9594              1677.0088              3987.8012
 Red. masses --      1.1509                13.5377                 1.0675
 Frc consts  --      1.1743                22.4318                10.0021
 IR Inten    --    156.1468               143.3686                84.4522

 - Thermochemistry -
 -------------------
 Temperature   298.150 Kelvin.  Pressure   1.00000 Atm.
 Atom     1 has atomic number  1 and mass   1.00783

 Molecular mass:    62.99564 amu.
 Principal axes and moments of inertia in atomic units:
                           1         2         3
     Eigenvalues --    32.80115 359.97540 392.77655
           X            0.81032  -0.58599   0.00000
           Y            0.58599   0.81032   0.00000
           Z            0.00000  -0.00000   1.00000
 This molecule is an asymmetric top.
 Rotational symmetry number  1.
 Rotational temperatures (Kelvin)      2.64058     0.24061     0.22052
 Rotational constants (GHZ):          55.02067     5.01351     4.59483
    1 imaginary frequencies ignored.
 Zero-point vibrational energy      58193.0 (Joules/Mol)
                                   13.90847 (Kcal/Mol)
 Warning -- explicit consideration of   3 degrees of freedom as
           vibrations may cause significant error
 Vibrational temperatures:    328.36   465.55   650.21  1120.21  1389.93
          (Kelvin)           1893.37  2412.84  5737.56

 Zero-point correction=                           0.022165 (Hartree/Particle)
 Thermal correction to Energy=                    0.026308
 Thermal correction to Enthalpy=                  0.027252
 Thermal correction to Gibbs Free Energy=        -0.003980
 Sum of electronic and zero-point Energies=           -280.424334
 Sum of electronic and thermal Energies=              -280.420190
 Sum of electronic and thermal Enthalpies=            -280.419246
 Sum of electronic and thermal Free Energies=         -280.450478

                     E (Thermal)             CV                S
                      KCal/Mol        Cal/Mol-Kelvin    Cal/Mol-Kelvin
 Total                   16.509             12.027             65.734
 Electronic               0.000              0.000              0.000
 Translational            0.889              2.981             38.341
 Rotational               0.889              2.981             23.054
 Vibrational             14.731              6.066              4.339
 Vibration     1          0.651              1.798              1.893
 Vibration     2          0.708              1.628              1.292
 Vibration     3          0.811              1.357              0.790

                       ! Non-Optimized Parameters !

 1\1\GINC-N2129\Freq\RMP2-FC\Aug-CC-pVTZ\H1N1O3\CGAVINH\21-Feb-2022\1\\
 #p freq mp2/aug-cc-pvtz density=current\\title\\0,1\H\O,1,r1\O,2,r2,1,
 a1\N,3,r3,2,a2,1,d1,0\O,4,r4,3,a3,2,d2,0\\r1=0.95319507\r2=1.45491931\
 r3=1.45878406\r4=1.17072885\a1=97.59494903\a2=102.29752444\a3=109.0695
 5123\d1=180.\d2=180.\\Version=ES64L-G16RevB.01\State=1-A'\HF=-279.5022
 037\MP2=-280.4464986\RMSD=3.787e-09\RMSF=5.893e-03\ZeroPoint=0.0221646
 \Thermal=0.0263082\Dipole=-0.143993,0.,-0.5441493\DipoleDeriv=0.264386
 2,0.,0.0487129,0.,0.3577761,0.,0.0852455,0.,0.2776899,-0.3280872,0.,-0

 Normal termination of Gaussian 16 at Mon Feb 21 20:07:39 2022.
