 Gaussian 16, Revision B.01,
 Gaussian 16:  ES64L-G16RevB.01 20-Dec-2017

 ---------------------------------------
 #p freq mp2/aug-cc-pvtz density=current
 ---------------------------------------

 -----
 title
 -----
 Symbolic Z-matrix:
 Charge =  0 Multiplicity = 1

                         Standard orientation:
 ---------------------------------------------------------------------
 Center     Atomic      Atomic             Coordinates (Angstroms)
 Number     Number       Type             X           Y           Z
 ---------------------------------------------------------------------
      1          1           0        1.545671    1.705186    0.000000
      2          8           0        1.453886    0.740567    0.000000
      3          8           0        0.000000    0.685743    0.000000
      4          7           0       -0.261633   -0.777438   -0.000000
      5          8           0       -1.418166   -0.959200   -0.000000
 ---------------------------------------------------------------------

 SCF Done:  E(RHF) =  -279.498840745     A.U. after   14 cycles
 E2 =    -0.9477405140D+00 EUMP2 =    -0.28044658125930D+03
 E2 =    -0.9477405140D+00 EUMP2 =    -0.28044658125930D+03

 The electronic state is 1-A'.
 Alpha  occ. eigenvalues --  -20.69081 -20.68622 -20.65660 -15.81730  -1.62317
 Alpha  occ. eigenvalues --   -1.49167  -1.24619  -0.95031  -0.77063  -0.75615
 Alpha  occ. eigenvalues --   -0.70742  -0.68076  -0.62176  -0.58791  -0.48226
 Alpha  occ. eigenvalues --   -0.47111
 Alpha virt. eigenvalues --    0.03039   0.06812   0.08541   0.10139   0.13379
 Alpha virt. eigenvalues --    0.13413   0.14466   0.15508   0.17886   0.19401
 Alpha virt. eigenvalues --    0.19967   0.20219   0.22152   0.23659   0.23707

 Mulliken charges:
               1
     1  H    0.249983
     2  O   -0.203483
     3  O   -0.164919
     4  N    0.299636
     5  O   -0.181217
 Sum of Mulliken charges =  -0.00000

 Dipole moment (field-independent basis, Debye):
    X=              0.3839    Y=              1.2000    Z=              0.0000  Tot=              1.2599
 Quadrupole moment (field-independent basis, Debye-Ang):
   XX=            -22.4221   YY=            -18.4973   ZZ=            -22.0497
   XY=              3.3079   XZ=              0.0000   YZ=             -0.0000

  Exact polarizability:  33.988   9.627  30.830  -0.000   0.000  18.023
 Approx polarizability:  29.142   5.298  24.164  -0.000   0.000  15.564

 ******    1 imaginary frequencies (negative Signs) ******

                      1                      2                      3
                     A"                     A"                     A'
 Frequencies --   -276.7034               240.1225               331.6460
 Red. masses --      1.1330                10.8683                 8.5093
 Frc consts  --      0.0511                 0.3692                 0.5514
 IR Inten    --    125.3636                 0.6639                11.6651

                      4                      5                      6
                     A'                     A'                     A'
 Frequencies --    400.0879               769.7937               962.8436
 Red. masses --     12.5245                13.1563                15.5249
 Frc consts  --      1.1812                 4.5934                 8.4799
 IR Inten    --    213.9156               151.9775                19.9576

                      7                      8                      9
                     A'                     A'                     A'
 Frequencies --   1366.1295              1665.3814              3778.0635
 Red. masses --      1.1298                13.3289                 1.0676
 Frc consts  --      1.2424                21.7808                 8.9780
 IR Inten    --    148.0835               154.3736                82.9384

 - Thermochemistry -
 -------------------
 Temperature   298.150 Kelvin.  Pressure   1.00000 Atm.
 Atom     1 has atomic number  1 and mass   1.00783

 Molecular mass:    62.99564 amu.
 Principal axes and moments of inertia in atomic units:
                           1         2         3
     Eigenvalues --    33.54065 365.22607 398.76672
           X            0.80316  -0.59576   0.00000
           Y            0.59576   0.80316   0.00000
           Z            0.00000  -0.00000   1.00000
 This molecule is an asymmetric top.
 Rotational symmetry number  1.
 Rotational temperatures (Kelvin)      2.58236     0.23715     0.21720
 Rotational constants (GHZ):          53.80757     4.94144     4.52581
    1 imaginary frequencies ignored.
 Zero-point vibrational energy      56906.8 (Joules/Mol)
                                   13.60104 (Kcal/Mol)
 Warning -- explicit consideration of   3 degrees of freedom as
           vibrations may cause significant error
 Vibrational temperatures:    345.48   477.16   575.64  1107.56  1385.32
          (Kelvin)           1965.56  2396.11  5435.79

 Zero-point correction=                           0.021675 (Hartree/Particle)
 Thermal correction to Energy=                    0.025840
 Thermal correction to Enthalpy=                  0.026784
 Thermal correction to Gibbs Free Energy=        -0.004494
 Sum of electronic and zero-point Energies=           -280.424907
 Sum of electronic and thermal Energies=              -280.420741
 Sum of electronic and thermal Enthalpies=            -280.419797
 Sum of electronic and thermal Free Energies=         -280.451076

                     E (Thermal)             CV                S
                      KCal/Mol        Cal/Mol-Kelvin    Cal/Mol-Kelvin
 Total                   16.215             12.105             65.831
 Electronic               0.000              0.000              0.000
 Translational            0.889              2.981             38.341
 Rotational               0.889              2.981             23.106
 Vibrational             14.437              6.143              4.385
 Vibration     1          0.657              1.779              1.802
 Vibration     2          0.714              1.612              1.252
 Vibration     3          0.766              1.470              0.962

                       ! Non-Optimized Parameters !

 1\1\GINC-N2127\Freq\RMP2-FC\Aug-CC-pVTZ\H1N1O3\CGAVINH\21-Feb-2022\1\\
 #p freq mp2/aug-cc-pvtz density=current\\title\\0,1\H\O,1,r1\O,2,r2,1,
 a1\N,3,r3,2,a2,1,d1,0\O,4,r4,3,a3,2,d2,0\\r1=0.96897556\r2=1.45491931\
 r3=1.48638841\r4=1.17072885\a1=97.59494903\a2=102.29752444\a3=109.0695
 5123\d1=180.\d2=180.\\Version=ES64L-G16RevB.01\State=1-A'\HF=-279.4988
 407\MP2=-280.4465813\RMSD=4.206e-09\RMSF=2.790e-03\ZeroPoint=0.0216746
 \Thermal=0.0258401\Dipole=-0.1056482,0.,-0.4842957\DipoleDeriv=0.26395
 86,0.,0.0456711,0.,0.3547335,0.,0.0821093,0.,0.2756456,-0.3333477,0.,-

 Normal termination of Gaussian 16 at Mon Feb 21 20:20:26 2022.
