 Gaussian 16, Revision B.01,
 Gaussian 16:  ES64L-G16RevB.01 20-Dec-2017

 ---------------------------------------
 #p freq mp2/aug-cc-pvtz density=current
 ---------------------------------------

 -----
 title
 -----
 Symbolic Z-matrix:
 Charge =  0 Multiplicity = 1

                         Standard orientation:
 ---------------------------------------------------------------------
 Center     Atomic      Atomic             Coordinates (Angstroms)
 Number     Number       Type             X           Y           Z
 ---------------------------------------------------------------------
      1          1           0        1.581781    1.681450   -0.000000
      2          8           0        1.454134    0.720919   -0.000000
      3          8           0       -0.000000    0.673122    0.000000
      4          7           0       -0.263711   -0.761628    0.000000
      5          8           0       -1.421109   -0.937798    0.000000
 ---------------------------------------------------------------------

 SCF Done:  E(RHF) =  -279.501808520     A.U. after   14 cycles
 E2 =    -0.9448092876D+00 EUMP2 =    -0.28044661780757D+03
 E2 =    -0.9448092876D+00 EUMP2 =    -0.28044661780757D+03

 The electronic state is 1-A'.
 Alpha  occ. eigenvalues --  -20.69114 -20.68436 -20.65918 -15.81290  -1.62398
 Alpha  occ. eigenvalues --   -1.49462  -1.25467  -0.94801  -0.77192  -0.76037
 Alpha  occ. eigenvalues --   -0.71161  -0.67982  -0.62013  -0.58765  -0.48499
 Alpha  occ. eigenvalues --   -0.47250
 Alpha virt. eigenvalues --    0.02943   0.07173   0.08595   0.10178   0.13377
 Alpha virt. eigenvalues --    0.13405   0.14410   0.15444   0.17832   0.19436
 Alpha virt. eigenvalues --    0.19997   0.20627   0.22089   0.23541   0.23740

 Mulliken charges:
               1
     1  H    0.247918
     2  O   -0.201714
     3  O   -0.145659
     4  N    0.292495
     5  O   -0.193040
 Sum of Mulliken charges =  -0.00000

 Dipole moment (field-independent basis, Debye):
    X=              0.5504    Y=              1.3622    Z=             -0.0000  Tot=              1.4692
 Quadrupole moment (field-independent basis, Debye-Ang):
   XX=            -22.3100   YY=            -18.6409   ZZ=            -22.0135
   XY=              3.3636   XZ=              0.0000   YZ=             -0.0000

  Exact polarizability:  34.111   9.533  30.251  -0.000  -0.000  17.944
 Approx polarizability:  29.026   5.155  23.499  -0.000  -0.000  15.531

 ******    1 imaginary frequencies (negative Signs) ******

                      1                      2                      3
                     A"                     A"                     A'
 Frequencies --   -291.5935               234.0046               344.0602
 Red. masses --      1.1640                 8.7078                 8.5232
 Frc consts  --      0.0583                 0.2809                 0.5945
 IR Inten    --    125.0381                 2.2818                 3.9216

                      4                      5                      6
                     A'                     A'                     A'
 Frequencies --    450.3908               783.7416               964.0691
 Red. masses --     12.1428                12.9175                14.7672
 Frc consts  --      1.4513                 4.6749                 8.0866
 IR Inten    --    201.4648               171.8792                21.7501

                      7                      8                      9
                     A'                     A'                     A'
 Frequencies --   1359.3880              1676.9267              3779.2661
 Red. masses --      1.1389                13.4135                 1.0680
 Frc consts  --      1.2400                22.2240                 8.9878
 IR Inten    --    146.0824               143.0910                85.0035

 - Thermochemistry -
 -------------------
 Temperature   298.150 Kelvin.  Pressure   1.00000 Atm.
 Atom     1 has atomic number  1 and mass   1.00783

 Molecular mass:    62.99564 amu.
 Principal axes and moments of inertia in atomic units:
                           1         2         3
     Eigenvalues --    32.77074 360.52889 393.29963
           X            0.81125  -0.58470   0.00000
           Y            0.58470   0.81125   0.00000
           Z           -0.00000   0.00000   1.00000
 This molecule is an asymmetric top.
 Rotational symmetry number  1.
 Rotational temperatures (Kelvin)      2.64303     0.24024     0.22022
 Rotational constants (GHZ):          55.07172     5.00582     4.58872
    1 imaginary frequencies ignored.
 Zero-point vibrational energy      57372.0 (Joules/Mol)
                                   13.71223 (Kcal/Mol)
 Warning -- explicit consideration of   3 degrees of freedom as
           vibrations may cause significant error
 Vibrational temperatures:    336.68   495.03   648.01  1127.63  1387.08
          (Kelvin)           1955.86  2412.72  5437.52

 Zero-point correction=                           0.021852 (Hartree/Particle)
 Thermal correction to Energy=                    0.025962
 Thermal correction to Enthalpy=                  0.026906
 Thermal correction to Gibbs Free Energy=        -0.004257
 Sum of electronic and zero-point Energies=           -280.424766
 Sum of electronic and thermal Energies=              -280.420656
 Sum of electronic and thermal Enthalpies=            -280.419712
 Sum of electronic and thermal Free Energies=         -280.450875

                     E (Thermal)             CV                S
                      KCal/Mol        Cal/Mol-Kelvin    Cal/Mol-Kelvin
 Total                   16.291             11.955             65.589
 Electronic               0.000              0.000              0.000
 Translational            0.889              2.981             38.341
 Rotational               0.889              2.981             23.056
 Vibrational             14.514              5.994              4.192
 Vibration     1          0.654              1.789              1.848
 Vibration     2          0.723              1.587              1.193
 Vibration     3          0.809              1.360              0.795

                       ! Non-Optimized Parameters !

 1\1\GINC-N2124\Freq\RMP2-FC\Aug-CC-pVTZ\H1N1O3\CGAVINH\21-Feb-2022\1\\
 #p freq mp2/aug-cc-pvtz density=current\\title\\0,1\H\O,1,r1\O,2,r2,1,
 a1\N,3,r3,2,a2,1,d1,0\O,4,r4,3,a3,2,d2,0\\r1=0.96897556\r2=1.45491931\
 r3=1.45878406\r4=1.17072885\a1=99.45246652\a2=102.29752444\a3=109.0695
 5123\d1=180.\d2=180.\\Version=ES64L-G16RevB.01\State=1-A'\HF=-279.5018
 085\MP2=-280.4466178\RMSD=3.811e-09\RMSF=1.648e-03\ZeroPoint=0.0218518
 \Thermal=0.0259618\Dipole=-0.1440757,0.,-0.5597761\DipoleDeriv=0.25989
 35,0.,0.0414893,0.,0.3578127,0.,0.0857188,0.,0.2790212,-0.3153318,0.,-

 Normal termination of Gaussian 16 at Mon Feb 21 20:37:46 2022.
