 Gaussian 16, Revision B.01,
 Gaussian 16:  ES64L-G16RevB.01 20-Dec-2017

 ---------------------------------------
 #p freq mp2/aug-cc-pvtz density=current
 ---------------------------------------

 -----
 title
 -----
 Symbolic Z-matrix:
 Charge =  0 Multiplicity = 1

                         Standard orientation:
 ---------------------------------------------------------------------
 Center     Atomic      Atomic             Coordinates (Angstroms)
 Number     Number       Type             X           Y           Z
 ---------------------------------------------------------------------
      1          1           0        1.547745    1.683006    0.000000
      2          8           0        1.453995    0.718577    0.000000
      3          8           0       -0.000000    0.666715    0.000000
      4          7           0       -0.259700   -0.768767   -0.000000
      5          8           0       -1.420225   -0.922996   -0.000000
 ---------------------------------------------------------------------

 SCF Done:  E(RHF) =  -279.501645014     A.U. after   14 cycles
 E2 =    -0.9449755447D+00 EUMP2 =    -0.28044662055880D+03
 E2 =    -0.9449755447D+00 EUMP2 =    -0.28044662055880D+03

 The electronic state is 1-A'.
 Alpha  occ. eigenvalues --  -20.69036 -20.68385 -20.65917 -15.81326  -1.62509
 Alpha  occ. eigenvalues --   -1.49481  -1.25338  -0.94840  -0.77209  -0.75961
 Alpha  occ. eigenvalues --   -0.71204  -0.67904  -0.61996  -0.58832  -0.48463
 Alpha  occ. eigenvalues --   -0.47397
 Alpha virt. eigenvalues --    0.02973   0.07114   0.08618   0.10169   0.13388
 Alpha virt. eigenvalues --    0.13388   0.14414   0.15444   0.17839   0.19412
 Alpha virt. eigenvalues --    0.19986   0.20659   0.22079   0.23666   0.23755

 Mulliken charges:
               1
     1  H    0.250184
     2  O   -0.204311
     3  O   -0.145355
     4  N    0.293187
     5  O   -0.193705
 Sum of Mulliken charges =  -0.00000

 Dipole moment (field-independent basis, Debye):
    X=              0.5113    Y=              1.3440    Z=              0.0000  Tot=              1.4380
 Quadrupole moment (field-independent basis, Debye-Ang):
   XX=            -22.5088   YY=            -18.6079   ZZ=            -22.0041
   XY=              3.2253   XZ=             -0.0000   YZ=              0.0000

  Exact polarizability:  33.970   9.355  30.065  -0.000  -0.000  17.905
 Approx polarizability:  29.041   4.942  23.396   0.000   0.000  15.511

 ******    1 imaginary frequencies (negative Signs) ******

                      1                      2                      3
                     A"                     A"                     A'
 Frequencies --   -265.3121               229.5824               341.6120
 Red. masses --      1.1346                11.0076                 8.6529
 Frc consts  --      0.0471                 0.3418                 0.5949
 IR Inten    --    125.0062                 0.4990                 3.2971

                      4                      5                      6
                     A'                     A'                     A'
 Frequencies --    461.8415               783.6552               968.4215
 Red. masses --     12.1586                12.9453                15.4777
 Frc consts  --      1.5280                 4.6840                 8.5523
 IR Inten    --    200.1739               164.9298                20.6442

                      7                      8                      9
                     A'                     A'                     A'
 Frequencies --   1371.4163              1677.6475              3778.4803
 Red. masses --      1.1332                13.2633                 1.0675
 Frc consts  --      1.2557                21.9939                 8.9798
 IR Inten    --    150.6637               136.8726                81.5393

 - Thermochemistry -
 -------------------
 Temperature   298.150 Kelvin.  Pressure   1.00000 Atm.
 Atom     1 has atomic number  1 and mass   1.00783

 Molecular mass:    62.99564 amu.
 Principal axes and moments of inertia in atomic units:
                           1         2         3
     Eigenvalues --    33.04779 357.91153 390.95933
           X            0.81310  -0.58212   0.00000
           Y            0.58212   0.81310   0.00000
           Z            0.00000  -0.00000   1.00000
 This molecule is an asymmetric top.
 Rotational symmetry number  1.
 Rotational temperatures (Kelvin)      2.62087     0.24200     0.22154
 Rotational constants (GHZ):          54.61004     5.04242     4.61619
    1 imaginary frequencies ignored.
 Zero-point vibrational energy      57496.5 (Joules/Mol)
                                   13.74198 (Kcal/Mol)
 Warning -- explicit consideration of   3 degrees of freedom as
           vibrations may cause significant error
 Vibrational temperatures:    330.32   491.50   664.49  1127.51  1393.34
          (Kelvin)           1973.16  2413.76  5436.39

 Zero-point correction=                           0.021899 (Hartree/Particle)
 Thermal correction to Energy=                    0.026008
 Thermal correction to Enthalpy=                  0.026952
 Thermal correction to Gibbs Free Energy=        -0.004213
 Sum of electronic and zero-point Energies=           -280.424721
 Sum of electronic and thermal Energies=              -280.420613
 Sum of electronic and thermal Enthalpies=            -280.419669
 Sum of electronic and thermal Free Energies=         -280.450834

                     E (Thermal)             CV                S
                      KCal/Mol        Cal/Mol-Kelvin    Cal/Mol-Kelvin
 Total                   16.320             11.932             65.593
 Electronic               0.000              0.000              0.000
 Translational            0.889              2.981             38.341
 Rotational               0.889              2.981             23.052
 Vibrational             14.543              5.970              4.201
 Vibration     1          0.652              1.796              1.882
 Vibration     2          0.721              1.592              1.205
 Vibration     3          0.820              1.335              0.761

                       ! Non-Optimized Parameters !

 1\1\GINC-N2124\Freq\RMP2-FC\Aug-CC-pVTZ\H1N1O3\CGAVINH\21-Feb-2022\1\\
 #p freq mp2/aug-cc-pvtz density=current\\title\\0,1\H\O,1,r1\O,2,r2,1,
 a1\N,3,r3,2,a2,1,d1,0\O,4,r4,3,a3,2,d2,0\\r1=0.96897556\r2=1.45491931\
 r3=1.45878406\r4=1.17072885\a1=97.59494903\a2=102.29752444\a3=107.8247
 868\d1=180.\d2=180.\\Version=ES64L-G16RevB.01\State=1-A'\HF=-279.50164
 5\MP2=-280.4466206\RMSD=3.738e-09\RMSF=2.354e-03\ZeroPoint=0.0218992\T
 hermal=0.0260077\Dipole=-0.1490556,0.,-0.5457527\DipoleDeriv=0.2656326
 ,0.,0.0479229,0.,0.3553073,0.,0.0810788,0.,0.2736498,-0.3310683,0.,-0.

 Normal termination of Gaussian 16 at Mon Feb 21 20:59:50 2022.
