 Gaussian 16, Revision B.01,
 Gaussian 16:  ES64L-G16RevB.01 20-Dec-2017

 ---------------------------------------
 #p freq mp2/aug-cc-pvtz density=current
 ---------------------------------------

 -----
 title
 -----
 Symbolic Z-matrix:
 Charge =  0 Multiplicity = 1

                         Standard orientation:
 ---------------------------------------------------------------------
 Center     Atomic      Atomic             Coordinates (Angstroms)
 Number     Number       Type             X           Y           Z
 ---------------------------------------------------------------------
      1          1           0        1.590551    1.637475   -0.000000
      2          8           0        1.454874    0.678046   -0.000000
      3          8           0        0.000000    0.689578    0.000000
      4          7           0       -0.264630   -0.745003   -0.000000
      5          8           0       -1.422141   -0.920431    0.000000
 ---------------------------------------------------------------------

 SCF Done:  E(RHF) =  -279.501213665     A.U. after   14 cycles
 E2 =    -0.9452868198D+00 EUMP2 =    -0.28044650048467D+03
 E2 =    -0.9452868198D+00 EUMP2 =    -0.28044650048467D+03

 The electronic state is 1-A'.
 Alpha  occ. eigenvalues --  -20.69141 -20.68378 -20.65920 -15.81213  -1.62413
 Alpha  occ. eigenvalues --   -1.49641  -1.25325  -0.94856  -0.77464  -0.75820
 Alpha  occ. eigenvalues --   -0.71214  -0.67567  -0.61980  -0.59111  -0.48540
 Alpha  occ. eigenvalues --   -0.47297
 Alpha virt. eigenvalues --    0.02962   0.07196   0.08590   0.10110   0.13415
 Alpha virt. eigenvalues --    0.13421   0.14436   0.15523   0.17815   0.19387
 Alpha virt. eigenvalues --    0.19959   0.20634   0.22119   0.23555   0.23758

 Mulliken charges:
               1
     1  H    0.246836
     2  O   -0.196320
     3  O   -0.150912
     4  N    0.295618
     5  O   -0.195223
 Sum of Mulliken charges =  -0.00000

 Dipole moment (field-independent basis, Debye):
    X=              0.5646    Y=              1.3401    Z=              0.0000  Tot=              1.4542
 Quadrupole moment (field-independent basis, Debye-Ang):
   XX=            -22.2288   YY=            -18.8494   ZZ=            -22.0058
   XY=              3.3196   XZ=              0.0000   YZ=             -0.0000

  Exact polarizability:  34.003   9.167  29.832  -0.000  -0.000  17.899
 Approx polarizability:  29.018   4.822  23.401  -0.000   0.000  15.512

 ******    1 imaginary frequencies (negative Signs) ******

                      1                      2                      3
                     A"                     A"                     A'
 Frequencies --   -252.5238               223.0526               345.0259
 Red. masses --      1.1366                10.4184                 8.4858
 Frc consts  --      0.0427                 0.3054                 0.5952
 IR Inten    --    125.0565                 0.7409                17.8293

                      4                      5                      6
                     A'                     A'                     A'
 Frequencies --    472.5085               786.9450               966.3986
 Red. masses --     12.7704                13.1745                15.5579
 Frc consts  --      1.6799                 4.8070                 8.5608
 IR Inten    --    187.5207               168.0592                20.3180

                      7                      8                      9
                     A'                     A'                     A'
 Frequencies --   1370.5533              1678.4789              3778.5930
 Red. masses --      1.1300                13.1509                 1.0675
 Frc consts  --      1.2506                21.8292                 8.9796
 IR Inten    --    150.1142               141.4920                78.0224

 - Thermochemistry -
 -------------------
 Temperature   298.150 Kelvin.  Pressure   1.00000 Atm.
 Atom     1 has atomic number  1 and mass   1.00783

 Molecular mass:    62.99564 amu.
 Principal axes and moments of inertia in atomic units:
                           1         2         3
     Eigenvalues --    34.05462 353.90031 387.95494
           X            0.81956  -0.57299   0.00000
           Y            0.57299   0.81956   0.00000
           Z           -0.00000   0.00000   1.00000
 This molecule is an asymmetric top.
 Rotational symmetry number  1.
 Rotational temperatures (Kelvin)      2.54338     0.24474     0.22326
 Rotational constants (GHZ):          52.99548     5.09958     4.65194
    1 imaginary frequencies ignored.
 Zero-point vibrational energy      57549.7 (Joules/Mol)
                                   13.75470 (Kcal/Mol)
 Warning -- explicit consideration of   3 degrees of freedom as
           vibrations may cause significant error
 Vibrational temperatures:    320.92   496.42   679.83  1132.24  1390.43
          (Kelvin)           1971.92  2414.96  5436.55

 Zero-point correction=                           0.021920 (Hartree/Particle)
 Thermal correction to Energy=                    0.026025
 Thermal correction to Enthalpy=                  0.026969
 Thermal correction to Gibbs Free Energy=        -0.004204
 Sum of electronic and zero-point Energies=           -280.424581
 Sum of electronic and thermal Energies=              -280.420476
 Sum of electronic and thermal Enthalpies=            -280.419532
 Sum of electronic and thermal Free Energies=         -280.450704

                     E (Thermal)             CV                S
                      KCal/Mol        Cal/Mol-Kelvin    Cal/Mol-Kelvin
 Total                   16.331             11.909             65.608
 Electronic               0.000              0.000              0.000
 Translational            0.889              2.981             38.341
 Rotational               0.889              2.981             23.063
 Vibrational             14.553              5.947              4.205
 Vibration     1          0.649              1.806              1.934
 Vibration     2          0.723              1.585              1.189
 Vibration     3          0.829              1.311              0.731

                       ! Non-Optimized Parameters !

 1\1\GINC-N2129\Freq\RMP2-FC\Aug-CC-pVTZ\H1N1O3\CGAVINH\21-Feb-2022\1\\
 #p freq mp2/aug-cc-pvtz density=current\\title\\0,1\H\O,1,r1\O,2,r2,1,
 a1\N,3,r3,2,a2,1,d1,0\O,4,r4,3,a3,2,d2,0\\r1=0.96897556\r2=1.45491931\
 r3=1.45878406\r4=1.17072885\a1=97.59494903\a2=99.99744014\a3=109.06955
 123\d1=180.\d2=180.\\Version=ES64L-G16RevB.01\State=1-A'\HF=-279.50121
 37\MP2=-280.4465005\RMSD=3.774e-09\RMSF=2.364e-03\ZeroPoint=0.0219195\
 Thermal=0.0260245\Dipole=-0.1461097,0.,-0.5531626\DipoleDeriv=0.269103
 5,0.,0.0511162,0.,0.3554214,0.,0.0763186,0.,0.269758,-0.3112282,0.,-0.

 Normal termination of Gaussian 16 at Mon Feb 21 20:51:37 2022.
