 Gaussian 16, Revision B.01,
 Gaussian 16:  ES64L-G16RevB.01 20-Dec-2017

 ---------------------------------------
 #p freq mp2/aug-cc-pvtz density=current
 ---------------------------------------

 -----
 title
 -----
 Symbolic Z-matrix:
 Charge =  0 Multiplicity = 1

                         Standard orientation:
 ---------------------------------------------------------------------
 Center     Atomic      Atomic             Coordinates (Angstroms)
 Number     Number       Type             X           Y           Z
 ---------------------------------------------------------------------
      1          1           0        1.547798    1.694031    0.000000
      2          8           0        1.453997    0.729607    0.000000
      3          8           0        0.000000    0.677821    0.000000
      4          7           0       -0.261633   -0.767914   -0.000000
      5          8           0       -1.418543   -0.947257   -0.000000
 ---------------------------------------------------------------------

 SCF Done:  E(RHF) =  -279.500653722     A.U. after   14 cycles
 E2 =    -0.9460570818D+00 EUMP2 =    -0.28044671080414D+03
 E2 =    -0.9460570818D+00 EUMP2 =    -0.28044671080414D+03

 The electronic state is 1-A'.
 Alpha  occ. eigenvalues --  -20.68912 -20.68677 -20.65870 -15.81452  -1.62358
 Alpha  occ. eigenvalues --   -1.49425  -1.25128  -0.94888  -0.77196  -0.75798
 Alpha  occ. eigenvalues --   -0.71006  -0.67991  -0.62098  -0.58887  -0.48413
 Alpha  occ. eigenvalues --   -0.47203
 Alpha virt. eigenvalues --    0.02991   0.07033   0.08575   0.10160   0.13390
 Alpha virt. eigenvalues --    0.13403   0.14430   0.15474   0.17849   0.19413
 Alpha virt. eigenvalues --    0.19975   0.20491   0.22110   0.23588   0.23726

 Mulliken charges:
               1
     1  H    0.250164
     2  O   -0.202305
     3  O   -0.153936
     4  N    0.294781
     5  O   -0.188705
 Sum of Mulliken charges =  -0.00000

 Dipole moment (field-independent basis, Debye):
    X=              0.4610    Y=              1.3004    Z=              0.0000  Tot=              1.3797
 Quadrupole moment (field-independent basis, Debye-Ang):
   XX=            -22.4512   YY=            -18.5712   ZZ=            -22.0253
   XY=              3.2757   XZ=             -0.0000   YZ=              0.0000

  Exact polarizability:  33.995   9.530  30.469   0.000   0.000  17.963
 Approx polarizability:  29.057   5.176  23.758   0.000   0.000  15.538

 ******    1 imaginary frequencies (negative Signs) ******

                      1                      2                      3
                     A"                     A"                     A'
 Frequencies --   -272.0639               233.3197               337.7892
 Red. masses --      1.1366                10.6587                 8.5814
 Frc consts  --      0.0496                 0.3419                 0.5769
 IR Inten    --    124.9815                 0.7283                 6.3090

                      4                      5                      6
                     A'                     A'                     A'
 Frequencies --    431.4015               778.9217               965.6149
 Red. masses --     12.3734                13.0256                15.4474
 Frc consts  --      1.3568                 4.6562                 8.4862
 IR Inten    --    207.6447               162.9732                21.5595

                      7                      8                      9
                     A'                     A'                     A'
 Frequencies --   1369.2864              1672.6585              3778.4669
 Red. masses --      1.1320                13.2507                 1.0676
 Frc consts  --      1.2505                21.8426                 8.9799
 IR Inten    --    151.1743               145.5829                82.7058

 - Thermochemistry -
 -------------------
 Temperature   298.150 Kelvin.  Pressure   1.00000 Atm.
 Atom     1 has atomic number  1 and mass   1.00783

 Molecular mass:    62.99564 amu.
 Principal axes and moments of inertia in atomic units:
                           1         2         3
     Eigenvalues --    33.10578 362.05566 395.16144
           X            0.80751  -0.58985   0.00000
           Y            0.58985   0.80751   0.00000
           Z            0.00000  -0.00000   1.00000
 This molecule is an asymmetric top.
 Rotational symmetry number  1.
 Rotational temperatures (Kelvin)      2.61628     0.23923     0.21919
 Rotational constants (GHZ):          54.51438     4.98471     4.56710
    1 imaginary frequencies ignored.
 Zero-point vibrational energy      57226.1 (Joules/Mol)
                                   13.67737 (Kcal/Mol)
 Warning -- explicit consideration of   3 degrees of freedom as
           vibrations may cause significant error
 Vibrational temperatures:    335.69   486.00   620.69  1120.69  1389.30
          (Kelvin)           1970.10  2406.58  5436.37

 Zero-point correction=                           0.021796 (Hartree/Particle)
 Thermal correction to Energy=                    0.025932
 Thermal correction to Enthalpy=                  0.026876
 Thermal correction to Gibbs Free Energy=        -0.004342
 Sum of electronic and zero-point Energies=           -280.424915
 Sum of electronic and thermal Energies=              -280.420779
 Sum of electronic and thermal Enthalpies=            -280.419835
 Sum of electronic and thermal Free Energies=         -280.451053

                     E (Thermal)             CV                S
                      KCal/Mol        Cal/Mol-Kelvin    Cal/Mol-Kelvin
 Total                   16.272             12.014             65.704
 Electronic               0.000              0.000              0.000
 Translational            0.889              2.981             38.341
 Rotational               0.889              2.981             23.075
 Vibrational             14.495              6.052              4.289
 Vibration     1          0.654              1.790              1.853
 Vibration     2          0.718              1.600              1.223
 Vibration     3          0.792              1.402              0.854

                       ! Non-Optimized Parameters !

 1\1\GINC-N2108\Freq\RMP2-FC\Aug-CC-pVTZ\H1N1O3\CGAVINH\21-Feb-2022\1\\
 #p freq mp2/aug-cc-pvtz density=current\\title\\0,1\H\O,1,r1\O,2,r2,1,
 a1\N,3,r3,2,a2,1,d1,0\O,4,r4,3,a3,2,d2,0\\r1=0.96897556\r2=1.45491931\
 r3=1.46921752\r4=1.17072885\a1=97.59494903\a2=102.29752444\a3=109.0695
 5123\d1=180.\d2=180.\\Version=ES64L-G16RevB.01\State=1-A'\HF=-279.5006
 537\MP2=-280.4467108\RMSD=3.939e-09\RMSF=1.016e-03\ZeroPoint=0.0217963
 \Thermal=0.0259318\Dipole=-0.1309917,0.,-0.5267565\DipoleDeriv=0.26546
 31,0.,0.0473032,0.,0.3552449,0.,0.0821433,0.,0.2756329,-0.3300153,0.,-

 Normal termination of Gaussian 16 at Mon Feb 21 20:19:32 2022.
