 Gaussian 16, Revision B.01,
 Gaussian 16:  ES64L-G16RevB.01 20-Dec-2017

 ---------------------------------------
 #p freq mp2/aug-cc-pvtz density=current
 ---------------------------------------

 -----
 title
 -----
 Symbolic Z-matrix:
 Charge =  0 Multiplicity = 1

                         Standard orientation:
 ---------------------------------------------------------------------
 Center     Atomic      Atomic             Coordinates (Angstroms)
 Number     Number       Type             X           Y           Z
 ---------------------------------------------------------------------
      1          1           0        1.581546    1.648686    0.000000
      2          8           0        1.454918    0.688020    0.000000
      3          8           0        0.000000    0.685838    0.000000
      4          7           0       -0.264089   -0.748842   -0.000000
      5          8           0       -1.421533   -0.924707   -0.000000
 ---------------------------------------------------------------------

 SCF Done:  E(RHF) =  -279.501371872     A.U. after   14 cycles
 E2 =    -0.9452239227D+00 EUMP2 =    -0.28044659579503D+03
 E2 =    -0.9452239227D+00 EUMP2 =    -0.28044659579503D+03

 The electronic state is 1-A'.
 Alpha  occ. eigenvalues --  -20.69131 -20.68390 -20.65938 -15.81229  -1.62410
 Alpha  occ. eigenvalues --   -1.49626  -1.25352  -0.94844  -0.77421  -0.75843
 Alpha  occ. eigenvalues --   -0.71206  -0.67654  -0.61996  -0.59074  -0.48536
 Alpha  occ. eigenvalues --   -0.47287
 Alpha virt. eigenvalues --    0.02962   0.07189   0.08591   0.10124   0.13411
 Alpha virt. eigenvalues --    0.13416   0.14430   0.15508   0.17818   0.19395
 Alpha virt. eigenvalues --    0.19964   0.20639   0.22110   0.23554   0.23753

 Mulliken charges:
               1
     1  H    0.247643
     2  O   -0.197571
     3  O   -0.150027
     4  N    0.294758
     5  O   -0.194804
 Sum of Mulliken charges =  -0.00000

 Dipole moment (field-independent basis, Debye):
    X=              0.5521    Y=              1.3452    Z=              0.0000  Tot=              1.4541
 Quadrupole moment (field-independent basis, Debye-Ang):
   XX=            -22.2827   YY=            -18.7968   ZZ=            -22.0069
   XY=              3.3074   XZ=             -0.0000   YZ=             -0.0000

  Exact polarizability:  34.006   9.235  29.922   0.000   0.000  17.906
 Approx polarizability:  29.018   4.885  23.424   0.000   0.000  15.514

 ******    1 imaginary frequencies (negative Signs) ******

                      1                      2                      3
                     A"                     A"                     A'
 Frequencies --   -256.5297               224.5248               344.5621
 Red. masses --      1.1371                10.4372                 8.4987
 Frc consts  --      0.0441                 0.3100                 0.5945
 IR Inten    --    124.9800                 0.7505                14.2730

                      4                      5                      6
                     A'                     A'                     A'
 Frequencies --    467.4454               786.5782               966.6037
 Red. masses --     12.6984                13.1178                15.5254
 Frc consts  --      1.6348                 4.7818                 8.5466
 IR Inten    --    190.7906               168.6721                20.8438

                      7                      8                      9
                     A'                     A'                     A'
 Frequencies --   1370.7182              1678.2398              3778.6306
 Red. masses --      1.1308                13.1635                 1.0675
 Frc consts  --      1.2517                21.8438                 8.9800
 IR Inten    --    150.7775               141.2041                79.0764

 - Thermochemistry -
 -------------------
 Temperature   298.150 Kelvin.  Pressure   1.00000 Atm.
 Atom     1 has atomic number  1 and mass   1.00783

 Molecular mass:    62.99564 amu.
 Principal axes and moments of inertia in atomic units:
                           1         2         3
     Eigenvalues --    33.77628 355.32424 389.10052
           X            0.81752  -0.57589   0.00000
           Y            0.57589   0.81752   0.00000
           Z            0.00000  -0.00000   1.00000
 This molecule is an asymmetric top.
 Rotational symmetry number  1.
 Rotational temperatures (Kelvin)      2.56434     0.24376     0.22260
 Rotational constants (GHZ):          53.43221     5.07914     4.63824
    1 imaginary frequencies ignored.
 Zero-point vibrational energy      57524.2 (Joules/Mol)
                                   13.74862 (Kcal/Mol)
 Warning -- explicit consideration of   3 degrees of freedom as
           vibrations may cause significant error
 Vibrational temperatures:    323.04   495.75   672.55  1131.71  1390.73
          (Kelvin)           1972.16  2414.61  5436.61

 Zero-point correction=                           0.021910 (Hartree/Particle)
 Thermal correction to Energy=                    0.026017
 Thermal correction to Enthalpy=                  0.026961
 Thermal correction to Gibbs Free Energy=        -0.004212
 Sum of electronic and zero-point Energies=           -280.424686
 Sum of electronic and thermal Energies=              -280.420578
 Sum of electronic and thermal Enthalpies=            -280.419634
 Sum of electronic and thermal Free Energies=         -280.450808

                     E (Thermal)             CV                S
                      KCal/Mol        Cal/Mol-Kelvin    Cal/Mol-Kelvin
 Total                   16.326             11.919             65.611
 Electronic               0.000              0.000              0.000
 Translational            0.889              2.981             38.341
 Rotational               0.889              2.981             23.061
 Vibrational             14.549              5.957              4.209
 Vibration     1          0.649              1.804              1.922
 Vibration     2          0.723              1.586              1.191
 Vibration     3          0.825              1.322              0.745

                       ! Non-Optimized Parameters !

 1\1\GINC-N2125\Freq\RMP2-FC\Aug-CC-pVTZ\H1N1O3\CGAVINH\21-Feb-2022\1\\
 #p freq mp2/aug-cc-pvtz density=current\\title\\0,1\H\O,1,r1\O,2,r2,1,
 a1\N,3,r3,2,a2,1,d1,0\O,4,r4,3,a3,2,d2,0\\r1=0.96897556\r2=1.45491931\
 r3=1.45878406\r4=1.17072885\a1=97.59494903\a2=100.5158868\a3=109.06955
 123\d1=180.\d2=180.\\Version=ES64L-G16RevB.01\State=1-A'\HF=-279.50137
 19\MP2=-280.4465958\RMSD=3.777e-09\RMSF=1.813e-03\ZeroPoint=0.0219098\
 Thermal=0.0260173\Dipole=-0.1462003,0.,-0.5530849\DipoleDeriv=0.268513
 8,0.,0.0504852,0.,0.3554498,0.,0.0776517,0.,0.2711532,-0.3149935,0.,-0

 Normal termination of Gaussian 16 at Mon Feb 21 20:50:36 2022.
