 Gaussian 16, Revision B.01,
 Gaussian 16:  ES64L-G16RevB.01 20-Dec-2017

 ---------------------------------------
 #p freq mp2/aug-cc-pvtz density=current
 ---------------------------------------

 -----
 title
 -----
 Symbolic Z-matrix:
 Charge =  0 Multiplicity = 1

                         Standard orientation:
 ---------------------------------------------------------------------
 Center     Atomic      Atomic             Coordinates (Angstroms)
 Number     Number       Type             X           Y           Z
 ---------------------------------------------------------------------
      1          1           0       -2.236438    0.420645    0.183004
      2          8           0       -1.599467   -0.281883   -0.016086
      3          8           0       -0.400136    0.541749   -0.021182
      4          7           0        0.662765   -0.456963    0.008270
      5          8           0        1.699239    0.087396    0.007156
 ---------------------------------------------------------------------

 SCF Done:  E(RHF) =  -279.501835526     A.U. after   16 cycles
 E2 =    -0.9450996479D+00 EUMP2 =    -0.28044693517377D+03
 E2 =    -0.9450996479D+00 EUMP2 =    -0.28044693517377D+03

 The electronic state is 1-A.
 Alpha  occ. eigenvalues --  -20.69109 -20.68425 -20.66017 -15.81267  -1.62403
 Alpha  occ. eigenvalues --   -1.49585  -1.25444  -0.94809  -0.77244  -0.75955
 Alpha  occ. eigenvalues --   -0.71314  -0.67866  -0.61975  -0.58865  -0.48736
 Alpha  occ. eigenvalues --   -0.47152
 Alpha virt. eigenvalues --    0.02957   0.07164   0.08592   0.10176   0.13217
 Alpha virt. eigenvalues --    0.13511   0.14386   0.15443   0.17808   0.19407
 Alpha virt. eigenvalues --    0.19911   0.20669   0.22080   0.23534   0.23722

 Mulliken charges:
               1
     1  H    0.250063
     2  O   -0.201771
     3  O   -0.146986
     4  N    0.292089
     5  O   -0.193395
 Sum of Mulliken charges =  -0.00000

 Dipole moment (field-independent basis, Debye):
    X=             -1.1979    Y=              0.7643    Z=              0.3471  Tot=              1.4628
 Quadrupole moment (field-independent basis, Debye-Ang):
   XX=            -18.1152   YY=            -23.1301   ZZ=            -21.9146
   XY=             -2.7032   XZ=             -0.9124   YZ=              0.2764

  Exact polarizability:  41.677  -0.946  22.502  -0.181   0.034  17.978
 Approx polarizability:  31.920   1.162  20.543  -0.156   0.130  15.590

 ******    1 imaginary frequencies (negative Signs) ******

                      1                      2                      3
                      A                      A                      A
 Frequencies --   -255.0499               227.8351               343.7014
 Red. masses --      1.1424                10.6519                 8.6640
 Frc consts  --      0.0438                 0.3258                 0.6030
 IR Inten    --    125.9086                 0.8881                 5.0362

                      4                      5                      6
                      A                      A                      A
 Frequencies --    453.3353               786.2673               965.7890
 Red. masses --     12.1097                12.9622                15.3135
 Frc consts  --      1.4663                 4.7214                 8.4157
 IR Inten    --    195.2019               169.0202                24.6129

                      7                      8                      9
                      A                      A                      A
 Frequencies --   1372.0174              1677.2059              3777.9103
 Red. masses --      1.1310                13.2832                 1.0676
 Frc consts  --      1.2543                22.0153                 8.9776
 IR Inten    --    149.1168               141.3489                81.3256

 - Thermochemistry -
 -------------------
 Temperature   298.150 Kelvin.  Pressure   1.00000 Atm.
 Atom     1 has atomic number  1 and mass   1.00783

 Molecular mass:    62.99564 amu.
 Principal axes and moments of inertia in atomic units:
                           1         2         3
     Eigenvalues --    32.93211 360.08196 392.70047
           X            0.99994  -0.01028  -0.00418
           Y            0.01032   0.99991   0.00892
           Z            0.00408  -0.00896   0.99995
 This molecule is an asymmetric top.
 Rotational symmetry number  1.
 Rotational temperatures (Kelvin)      2.63008     0.24054     0.22056
 Rotational constants (GHZ):          54.80187     5.01203     4.59572
    1 imaginary frequencies ignored.
 Zero-point vibrational energy      57445.0 (Joules/Mol)
                                   13.72970 (Kcal/Mol)
 Warning -- explicit consideration of   3 degrees of freedom as
           vibrations may cause significant error
 Vibrational temperatures:    327.80   494.51   652.25  1131.26  1389.55
          (Kelvin)           1974.03  2413.13  5435.57

 Zero-point correction=                           0.021880 (Hartree/Particle)
 Thermal correction to Energy=                    0.025995
 Thermal correction to Enthalpy=                  0.026939
 Thermal correction to Gibbs Free Energy=        -0.004242
 Sum of electronic and zero-point Energies=           -280.425056
 Sum of electronic and thermal Energies=              -280.420940
 Sum of electronic and thermal Enthalpies=            -280.419996
 Sum of electronic and thermal Free Energies=         -280.451178

                     E (Thermal)             CV                S
                      KCal/Mol        Cal/Mol-Kelvin    Cal/Mol-Kelvin
 Total                   16.312             11.948             65.627
 Electronic               0.000              0.000              0.000
 Translational            0.889              2.981             38.341
 Rotational               0.889              2.981             23.058
 Vibrational             14.535              5.986              4.228
 Vibration     1          0.651              1.799              1.896
 Vibration     2          0.722              1.588              1.195
 Vibration     3          0.812              1.354              0.786

                       ! Non-Optimized Parameters !

 1\1\GINC-N2128\Freq\RMP2-FC\Aug-CC-pVTZ\H1N1O3\CGAVINH\21-Feb-2022\1\\
 #p freq mp2/aug-cc-pvtz density=current\\title\\0,1\H\O,1,r1\O,2,r2,1,
 a1\N,3,r3,2,a2,1,d1,0\O,4,r4,3,a3,2,d2,0\\r1=0.96897556\r2=1.45491931\
 r3=1.45878406\r4=1.17072885\a1=97.59494903\a2=102.29752444\a3=109.0695
 5123\d1=166.83632994\d2=180.\\Version=ES64L-G16RevB.01\State=1-A\HF=-2
 79.5018355\MP2=-280.4469352\RMSD=5.025e-09\RMSF=6.186e-04\ZeroPoint=0.
 0218797\Thermal=0.0259951\Dipole=-0.1465604,0.0264022,-0.5558975\Dipol
 eDeriv=0.2653987,-0.0019929,0.0478971,-0.0022338,0.3538062,-0.0020692,

 Normal termination of Gaussian 16 at Mon Feb 21 21:10:02 2022.
