 Gaussian 16, Revision B.01,
 Gaussian 16:  ES64L-G16RevB.01 20-Dec-2017

 ---------------------------------------
 #p freq mp2/aug-cc-pvtz density=current
 ---------------------------------------

 -----
 title
 -----
 Symbolic Z-matrix:
 Charge =  0 Multiplicity = 1

                         Standard orientation:
 ---------------------------------------------------------------------
 Center     Atomic      Atomic             Coordinates (Angstroms)
 Number     Number       Type             X           Y           Z
 ---------------------------------------------------------------------
      1          1           0        1.546155    1.692022    0.000000
      2          8           0        1.453912    0.727447    0.000000
      3          8           0        0.000000    0.673313    0.000000
      4          7           0       -0.257456   -0.762573   -0.000000
      5          8           0       -1.421907   -0.945012   -0.000000
 ---------------------------------------------------------------------

 SCF Done:  E(RHF) =  -279.500241494     A.U. after   14 cycles
 E2 =    -0.9464097538D+00 EUMP2 =    -0.28044665124817D+03
 E2 =    -0.9464097538D+00 EUMP2 =    -0.28044665124817D+03

 The electronic state is 1-A'.
 Alpha  occ. eigenvalues --  -20.69272 -20.68397 -20.66099 -15.81399  -1.61774
 Alpha  occ. eigenvalues --   -1.49555  -1.25520  -0.94916  -0.77192  -0.75711
 Alpha  occ. eigenvalues --   -0.71029  -0.67838  -0.61879  -0.58993  -0.48587
 Alpha  occ. eigenvalues --   -0.47404
 Alpha virt. eigenvalues --    0.02941   0.06923   0.08607   0.10172   0.13384
 Alpha virt. eigenvalues --    0.13411   0.14391   0.15434   0.17812   0.19426
 Alpha virt. eigenvalues --    0.19952   0.20635   0.22055   0.23477   0.23733

 Mulliken charges:
               1
     1  H    0.250531
     2  O   -0.200956
     3  O   -0.145430
     4  N    0.290850
     5  O   -0.194995
 Sum of Mulliken charges =  -0.00000

 Dipole moment (field-independent basis, Debye):
    X=              0.5376    Y=              1.3955    Z=              0.0000  Tot=              1.4955
 Quadrupole moment (field-independent basis, Debye-Ang):
   XX=            -22.5098   YY=            -18.6157   ZZ=            -22.0235
   XY=              3.2297   XZ=             -0.0000   YZ=              0.0000

  Exact polarizability:  34.084   9.558  30.359   0.000   0.000  17.943
 Approx polarizability:  29.183   5.169  23.589   0.000   0.000  15.556

 ******    1 imaginary frequencies (negative Signs) ******

                      1                      2                      3
                     A"                     A"                     A'
 Frequencies --   -270.5696               253.2530               347.0028
 Red. masses --      1.1323                11.1199                 8.5215
 Frc consts  --      0.0488                 0.4202                 0.6045
 IR Inten    --    125.0821                 0.4406                 6.9905

                      4                      5                      6
                     A'                     A'                     A'
 Frequencies --    447.5442               785.4959               966.3230
 Red. masses --     12.4319                13.0901                15.3942
 Frc consts  --      1.4671                 4.7586                 8.4694
 IR Inten    --    197.8799               170.6676                23.5996

                      7                      8                      9
                     A'                     A'                     A'
 Frequencies --   1370.3142              1627.4660              3778.7748
 Red. masses --      1.1391                12.3863                 1.0675
 Frc consts  --      1.2602                19.3293                 8.9813
 IR Inten    --    158.0373               120.2016                83.1412

 - Thermochemistry -
 -------------------
 Temperature   298.150 Kelvin.  Pressure   1.00000 Atm.
 Atom     1 has atomic number  1 and mass   1.00783

 Molecular mass:    62.99564 amu.
 Principal axes and moments of inertia in atomic units:
                           1         2         3
     Eigenvalues --    32.87247 361.49090 394.36338
           X            0.80912  -0.58765   0.00000
           Y            0.58765   0.80912   0.00000
           Z           -0.00000   0.00000   1.00000
 This molecule is an asymmetric top.
 Rotational symmetry number  1.
 Rotational temperatures (Kelvin)      2.63485     0.23960     0.21963
 Rotational constants (GHZ):          54.90129     4.99249     4.57634
    1 imaginary frequencies ignored.
 Zero-point vibrational energy      57278.2 (Joules/Mol)
                                   13.68983 (Kcal/Mol)
 Warning -- explicit consideration of   3 degrees of freedom as
           vibrations may cause significant error
 Vibrational temperatures:    364.37   499.26   643.92  1130.15  1390.32
          (Kelvin)           1971.58  2341.56  5436.81

 Zero-point correction=                           0.021816 (Hartree/Particle)
 Thermal correction to Energy=                    0.025897
 Thermal correction to Enthalpy=                  0.026841
 Thermal correction to Gibbs Free Energy=        -0.004256
 Sum of electronic and zero-point Energies=           -280.424835
 Sum of electronic and thermal Energies=              -280.420754
 Sum of electronic and thermal Enthalpies=            -280.419810
 Sum of electronic and thermal Free Energies=         -280.450907

                     E (Thermal)             CV                S
                      KCal/Mol        Cal/Mol-Kelvin    Cal/Mol-Kelvin
 Total                   16.251             11.922             65.450
 Electronic               0.000              0.000              0.000
 Translational            0.889              2.981             38.341
 Rotational               0.889              2.981             23.065
 Vibrational             14.473              5.960              4.045
 Vibration     1          0.664              1.757              1.708
 Vibration     2          0.725              1.581              1.180
 Vibration     3          0.807              1.366              0.803

                       ! Non-Optimized Parameters !

 1\1\GINC-N2110\Freq\RMP2-FC\Aug-CC-pVTZ\H1N1O3\CGAVINH\21-Feb-2022\1\\
 #p freq mp2/aug-cc-pvtz density=current\\title\\0,1\H\O,1,r1\O,2,r2,1,
 a1\N,3,r3,2,a2,1,d1,0\O,4,r4,3,a3,2,d2,0\\r1=0.96897556\r2=1.45491931\
 r3=1.45878406\r4=1.17865642\a1=97.59494903\a2=102.29752444\a3=109.0695
 5123\d1=180.\d2=180.\\Version=ES64L-G16RevB.01\State=1-A'\HF=-279.5002
 415\MP2=-280.4466512\RMSD=4.007e-09\RMSF=3.984e-03\ZeroPoint=0.0218161
 \Thermal=0.025897\Dipole=-0.1582875,0.,-0.5666667\DipoleDeriv=0.266393
 8,0.,0.0484172,0.,0.3558136,0.,0.0826597,0.,0.2765057,-0.3295935,0.,-0

 Normal termination of Gaussian 16 at Mon Feb 21 20:28:32 2022.
