 Gaussian 16, Revision B.01,
 Gaussian 16:  ES64L-G16RevB.01 20-Dec-2017

 ---------------------------------------
 #p freq mp2/aug-cc-pvtz density=current
 ---------------------------------------

 -----
 title
 -----
 Symbolic Z-matrix:
 Charge =  0 Multiplicity = 1

                         Standard orientation:
 ---------------------------------------------------------------------
 Center     Atomic      Atomic             Coordinates (Angstroms)
 Number     Number       Type             X           Y           Z
 ---------------------------------------------------------------------
      1          1           0        2.248252    0.433566   -0.030522
      2          8           0        1.597595   -0.284425   -0.023590
      3          8           0        0.400681    0.541210    0.026546
      4          7           0       -0.664130   -0.455795    0.040990
      5          8           0       -1.698195    0.087841   -0.035007
 ---------------------------------------------------------------------

 SCF Done:  E(RHF) =  -279.501537737     A.U. after   16 cycles
 E2 =    -0.9449698173D+00 EUMP2 =    -0.28044650755403D+03
 E2 =    -0.9449698173D+00 EUMP2 =    -0.28044650755403D+03

 The electronic state is 1-A.
 Alpha  occ. eigenvalues --  -20.69070 -20.68442 -20.66000 -15.81275  -1.62405
 Alpha  occ. eigenvalues --   -1.49570  -1.25438  -0.94806  -0.77275  -0.75915
 Alpha  occ. eigenvalues --   -0.71216  -0.67897  -0.62058  -0.58934  -0.48522
 Alpha  occ. eigenvalues --   -0.47248
 Alpha virt. eigenvalues --    0.02963   0.07151   0.08603   0.10172   0.13208
 Alpha virt. eigenvalues --    0.13568   0.14410   0.15455   0.17802   0.19409
 Alpha virt. eigenvalues --    0.19946   0.20669   0.22094   0.23430   0.23877

 Mulliken charges:
               1
     1  H    0.250385
     2  O   -0.201542
     3  O   -0.147677
     4  N    0.291603
     5  O   -0.192769
 Sum of Mulliken charges =  -0.00000

 Dipole moment (field-independent basis, Debye):
    X=              1.2149    Y=              0.7902    Z=             -0.0112  Tot=              1.4493
 Quadrupole moment (field-independent basis, Debye-Ang):
   XX=            -17.9825   YY=            -23.0931   ZZ=            -22.0167
   XY=              2.7847   XZ=             -0.1644   YZ=              0.0641

  Exact polarizability:  41.685   0.974  22.514   0.097  -0.068  17.956
 Approx polarizability:  31.919  -1.127  20.572   0.197  -0.014  15.555

 ******    1 imaginary frequencies (negative Signs) ******

                      1                      2                      3
                      A                      A                      A
 Frequencies --   -269.8930               225.6358               342.0485
 Red. masses --      1.1383                10.5261                 8.6487
 Frc consts  --      0.0489                 0.3157                 0.5962
 IR Inten    --    124.7166                 1.8209                 4.1158

                      4                      5                      6
                      A                      A                      A
 Frequencies --    451.9457               785.8177               967.2135
 Red. masses --     12.3009                12.9086                15.3948
 Frc consts  --      1.4803                 4.6965                 8.4853
 IR Inten    --    199.1118               170.2739                22.3930

                      7                      8                      9
                      A                      A                      A
 Frequencies --   1371.0909              1676.9436              3778.6858
 Red. masses --      1.1334                13.2095                 1.0675
 Frc consts  --      1.2554                21.8864                 8.9809
 IR Inten    --    152.6458               140.2505                82.6249

 - Thermochemistry -
 -------------------
 Temperature   298.150 Kelvin.  Pressure   1.00000 Atm.
 Atom     1 has atomic number  1 and mass   1.00783

 Molecular mass:    62.99564 amu.
 Principal axes and moments of inertia in atomic units:
                           1         2         3
     Eigenvalues --    33.03843 359.90993 392.49014
           X            0.99994   0.01070  -0.00070
           Y           -0.01070   0.99994  -0.00152
           Z            0.00068   0.00153   1.00000
 This molecule is an asymmetric top.
 Rotational symmetry number  1.
 Rotational temperatures (Kelvin)      2.62161     0.24065     0.22068
 Rotational constants (GHZ):          54.62551     5.01442     4.59818
    1 imaginary frequencies ignored.
 Zero-point vibrational energy      57417.1 (Joules/Mol)
                                   13.72300 (Kcal/Mol)
 Warning -- explicit consideration of   3 degrees of freedom as
           vibrations may cause significant error
 Vibrational temperatures:    324.64   492.13   650.25  1130.62  1391.60
          (Kelvin)           1972.69  2412.75  5436.69

 Zero-point correction=                           0.021869 (Hartree/Particle)
 Thermal correction to Energy=                    0.025991
 Thermal correction to Enthalpy=                  0.026935
 Thermal correction to Gibbs Free Energy=        -0.004262
 Sum of electronic and zero-point Energies=           -280.424639
 Sum of electronic and thermal Energies=              -280.420517
 Sum of electronic and thermal Enthalpies=            -280.419573
 Sum of electronic and thermal Free Energies=         -280.450769

                     E (Thermal)             CV                S
                      KCal/Mol        Cal/Mol-Kelvin    Cal/Mol-Kelvin
 Total                   16.309             11.957             65.659
 Electronic               0.000              0.000              0.000
 Translational            0.889              2.981             38.341
 Rotational               0.889              2.981             23.061
 Vibrational             14.532              5.995              4.258
 Vibration     1          0.650              1.802              1.913
 Vibration     2          0.721              1.591              1.203
 Vibration     3          0.811              1.357              0.790

                       ! Non-Optimized Parameters !

 1\1\GINC-N2129\Freq\RMP2-FC\Aug-CC-pVTZ\H1N1O3\CGAVINH\21-Feb-2022\1\\
 #p freq mp2/aug-cc-pvtz density=current\\title\\0,1\H\O,1,r1\O,2,r2,1,
 a1\N,3,r3,2,a2,1,d1,0\O,4,r4,3,a3,2,d2,0\\r1=0.96897556\r2=1.45491931\
 r3=1.45878406\r4=1.17072885\a1=97.59494903\a2=102.29752444\a3=109.0695
 5123\d1=180.\d2=186.03270653\\Version=ES64L-G16RevB.01\State=1-A\HF=-2
 79.5015377\MP2=-280.4465076\RMSD=4.077e-09\RMSF=9.538e-04\ZeroPoint=0.
 021869\Thermal=0.0259906\Dipole=-0.1453452,-0.0044486,-0.5513583\Dipol
 eDeriv=0.2663721,-0.000901,0.0481439,0.0020946,0.3555794,0.0026456,0.0

 Normal termination of Gaussian 16 at Mon Feb 21 21:14:20 2022.
