 Gaussian 16, Revision B.01,
 Gaussian 16:  ES64L-G16RevB.01 20-Dec-2017

 ---------------------------------------
 #p freq mp2/aug-cc-pvtz density=current
 ---------------------------------------

 -----
 title
 -----
 Symbolic Z-matrix:
 Charge =  0 Multiplicity = 1

                         Standard orientation:
 ---------------------------------------------------------------------
 Center     Atomic      Atomic             Coordinates (Angstroms)
 Number     Number       Type             X           Y           Z
 ---------------------------------------------------------------------
      1          1           0        1.514298    1.725714   -0.000000
      2          8           0        1.451578    0.758770   -0.000000
      3          8           0        0.000000    0.660225    0.000000
      4          7           0       -0.258214   -0.775524   -0.000000
      5          8           0       -1.414928   -0.956126    0.000000
 ---------------------------------------------------------------------

 SCF Done:  E(RHF) =  -279.501671208     A.U. after   14 cycles
 E2 =    -0.9449289068D+00 EUMP2 =    -0.28044660011497D+03
 E2 =    -0.9449289068D+00 EUMP2 =    -0.28044660011497D+03

 The electronic state is 1-A'.
 Alpha  occ. eigenvalues --  -20.69034 -20.68470 -20.66058 -15.81339  -1.62398
 Alpha  occ. eigenvalues --   -1.49523  -1.25524  -0.94774  -0.77144  -0.75989
 Alpha  occ. eigenvalues --   -0.71153  -0.68199  -0.62092  -0.58808  -0.48506
 Alpha  occ. eigenvalues --   -0.47214
 Alpha virt. eigenvalues --    0.02963   0.07146   0.08598   0.10220   0.13375
 Alpha virt. eigenvalues --    0.13376   0.14385   0.15392   0.17833   0.19435
 Alpha virt. eigenvalues --    0.20000   0.20606   0.22064   0.23517   0.23723

 Mulliken charges:
               1
     1  H    0.252629
     2  O   -0.205167
     3  O   -0.144581
     4  N    0.288645
     5  O   -0.191526
 Sum of Mulliken charges =  -0.00000

 Dipole moment (field-independent basis, Debye):
    X=              0.4627    Y=              1.3736    Z=              0.0000  Tot=              1.4494
 Quadrupole moment (field-independent basis, Debye-Ang):
   XX=            -22.6567   YY=            -18.4353   ZZ=            -22.0138
   XY=              3.1894   XZ=              0.0000   YZ=             -0.0000

  Exact polarizability:  33.970   9.711  30.615  -0.000   0.000  17.948
 Approx polarizability:  28.982   5.330  23.642  -0.000   0.000  15.530

 ******    1 imaginary frequencies (negative Signs) ******

                      1                      2                      3
                     A"                     A"                     A'
 Frequencies --   -280.5259               232.7520               334.9901
 Red. masses --      1.1407                10.6311                 8.8665
 Frc consts  --      0.0529                 0.3393                 0.5862
 IR Inten    --    124.5039                 0.7868                 1.7506

                      4                      5                      6
                     A'                     A'                     A'
 Frequencies --    438.8540               784.3568               967.8155
 Red. masses --     11.7217                12.7151                15.2371
 Frc consts  --      1.3301                 4.6089                 8.4089
 IR Inten    --    202.2635               172.8725                24.4089

                      7                      8                      9
                     A'                     A'                     A'
 Frequencies --   1371.7274              1676.2998              3778.6958
 Red. masses --      1.1362                13.2567                 1.0676
 Frc consts  --      1.2596                21.9477                 8.9815
 IR Inten    --    155.2211               140.1143                85.7656

 - Thermochemistry -
 -------------------
 Temperature   298.150 Kelvin.  Pressure   1.00000 Atm.
 Atom     1 has atomic number  1 and mass   1.00783

 Molecular mass:    62.99564 amu.
 Principal axes and moments of inertia in atomic units:
                           1         2         3
     Eigenvalues --    31.93729 364.85521 396.79249
           X            0.80218  -0.59709   0.00000
           Y            0.59709   0.80218   0.00000
           Z           -0.00000   0.00000   1.00000
 This molecule is an asymmetric top.
 Rotational symmetry number  1.
 Rotational temperatures (Kelvin)      2.71200     0.23739     0.21829
 Rotational constants (GHZ):          56.50890     4.94646     4.54832
    1 imaginary frequencies ignored.
 Zero-point vibrational energy      57334.0 (Joules/Mol)
                                   13.70315 (Kcal/Mol)
 Warning -- explicit consideration of   3 degrees of freedom as
           vibrations may cause significant error
 Vibrational temperatures:    334.88   481.98   631.41  1128.51  1392.47
          (Kelvin)           1973.61  2411.82  5436.70

 Zero-point correction=                           0.021837 (Hartree/Particle)
 Thermal correction to Energy=                    0.025968
 Thermal correction to Enthalpy=                  0.026912
 Thermal correction to Gibbs Free Energy=        -0.004289
 Sum of electronic and zero-point Energies=           -280.424763
 Sum of electronic and thermal Energies=              -280.420632
 Sum of electronic and thermal Enthalpies=            -280.419688
 Sum of electronic and thermal Free Energies=         -280.450889

                     E (Thermal)             CV                S
                      KCal/Mol        Cal/Mol-Kelvin    Cal/Mol-Kelvin
 Total                   16.295             11.991             65.668
 Electronic               0.000              0.000              0.000
 Translational            0.889              2.981             38.341
 Rotational               0.889              2.981             23.051
 Vibrational             14.518              6.029              4.276
 Vibration     1          0.654              1.791              1.858
 Vibration     2          0.716              1.606              1.236
 Vibration     3          0.799              1.385              0.830

                       ! Non-Optimized Parameters !

 1\1\GINC-N2125\Freq\RMP2-FC\Aug-CC-pVTZ\H1N1O3\CGAVINH\21-Feb-2022\1\\
 #p freq mp2/aug-cc-pvtz density=current\\title\\0,1\H\O,1,r1\O,2,r2,1,
 a1\N,3,r3,2,a2,1,d1,0\O,4,r4,3,a3,2,d2,0\\r1=0.96897556\r2=1.45491931\
 r3=1.45878406\r4=1.17072885\a1=97.59494903\a2=104.07916208\a3=109.0695
 5123\d1=180.\d2=180.\\Version=ES64L-G16RevB.01\State=1-A'\HF=-279.5016
 712\MP2=-280.4466001\RMSD=3.809e-09\RMSF=1.853e-03\ZeroPoint=0.0218374
 \Thermal=0.0259682\Dipole=-0.1466786,0.,-0.55107\DipoleDeriv=0.2640395
 ,0.,0.0460593,0.,0.3556654,0.,0.086492,0.,0.279476,-0.3413864,0.,-0.21

 Normal termination of Gaussian 16 at Mon Feb 21 20:46:14 2022.
