 Gaussian 16, Revision B.01,
 Gaussian 16:  ES64L-G16RevB.01 20-Dec-2017

 ---------------------------------------
 #p freq mp2/aug-cc-pvtz density=current
 ---------------------------------------

 -----
 title
 -----
 Symbolic Z-matrix:
 Charge =  0 Multiplicity = 1

                         Standard orientation:
 ---------------------------------------------------------------------
 Center     Atomic      Atomic             Coordinates (Angstroms)
 Number     Number       Type             X           Y           Z
 ---------------------------------------------------------------------
      1          1           0        1.553276    1.680406   -0.000000
      2          8           0        1.454256    0.716504   -0.000000
      3          8           0       -0.000000    0.672589    0.000000
      4          7           0       -0.267541   -0.761452    0.000000
      5          8           0       -1.414317   -0.932873    0.000000
 ---------------------------------------------------------------------

 SCF Done:  E(RHF) =  -279.503395763     A.U. after   14 cycles
 E2 =    -0.9431430990D+00 EUMP2 =    -0.28044653886184D+03
 E2 =    -0.9431430990D+00 EUMP2 =    -0.28044653886184D+03

 The electronic state is 1-A'.
 Alpha  occ. eigenvalues --  -20.68823 -20.68477 -20.65853 -15.81120  -1.63334
 Alpha  occ. eigenvalues --   -1.49579  -1.25327  -0.94655  -0.77419  -0.76217
 Alpha  occ. eigenvalues --   -0.71426  -0.68065  -0.62262  -0.58867  -0.48425
 Alpha  occ. eigenvalues --   -0.47029
 Alpha virt. eigenvalues --    0.02993   0.07514   0.08575   0.10172   0.13374
 Alpha virt. eigenvalues --    0.13410   0.14432   0.15481   0.17847   0.19404
 Alpha virt. eigenvalues --    0.20023   0.20637   0.22118   0.23639   0.23746

 Mulliken charges:
               1
     1  H    0.249876
     2  O   -0.202505
     3  O   -0.149666
     4  N    0.292854
     5  O   -0.190559
 Sum of Mulliken charges =  -0.00000

 Dipole moment (field-independent basis, Debye):
    X=              0.4651    Y=              1.3108    Z=             -0.0000  Tot=              1.3909
 Quadrupole moment (field-independent basis, Debye-Ang):
   XX=            -22.4089   YY=            -18.6158   ZZ=            -21.9917
   XY=              3.2945   XZ=              0.0000   YZ=             -0.0000

  Exact polarizability:  33.884   9.350  30.105  -0.000  -0.000  17.907
 Approx polarizability:  28.766   5.018  23.426  -0.000  -0.000  15.474

 ******    1 imaginary frequencies (negative Signs) ******

                      1                      2                      3
                     A"                     A"                     A'
 Frequencies --   -267.7996               185.0231               331.4787
 Red. masses --      1.1545                 9.3523                 8.7508
 Frc consts  --      0.0488                 0.1886                 0.5665
 IR Inten    --    123.7685                 1.7114                 2.5530

                      4                      5                      6
                     A'                     A'                     A'
 Frequencies --    458.1728               784.4740               968.4433
 Red. masses --     12.1675                12.6633                15.4050
 Frc consts  --      1.5049                 4.5915                 8.5126
 IR Inten    --    200.6982               171.3665                21.1050

                      7                      8                      9
                     A'                     A'                     A'
 Frequencies --   1371.9895              1750.7548              3778.5961
 Red. masses --      1.1297                13.9010                 1.0675
 Frc consts  --      1.2528                25.1042                 8.9804
 IR Inten    --    147.9198               167.0446                81.6846

 - Thermochemistry -
 -------------------
 Temperature   298.150 Kelvin.  Pressure   1.00000 Atm.
 Atom     1 has atomic number  1 and mass   1.00783

 Molecular mass:    62.99564 amu.
 Principal axes and moments of inertia in atomic units:
                           1         2         3
     Eigenvalues --    32.79531 358.25418 391.04950
           X            0.81161  -0.58419   0.00000
           Y            0.58419   0.81161   0.00000
           Z           -0.00000   0.00000   1.00000
 This molecule is an asymmetric top.
 Rotational symmetry number  1.
 Rotational temperatures (Kelvin)      2.64105     0.24177     0.22149
 Rotational constants (GHZ):          55.03046     5.03760     4.61512
    1 imaginary frequencies ignored.
 Zero-point vibrational energy      57593.8 (Joules/Mol)
                                   13.76525 (Kcal/Mol)
 Warning -- explicit consideration of   3 degrees of freedom as
           vibrations may cause significant error
 Vibrational temperatures:    266.21   476.92   659.21  1128.68  1393.37
          (Kelvin)           1973.99  2518.95  5436.56

 Zero-point correction=                           0.021936 (Hartree/Particle)
 Thermal correction to Energy=                    0.026127
 Thermal correction to Enthalpy=                  0.027071
 Thermal correction to Gibbs Free Energy=        -0.004305
 Sum of electronic and zero-point Energies=           -280.424603
 Sum of electronic and thermal Energies=              -280.420412
 Sum of electronic and thermal Enthalpies=            -280.419467
 Sum of electronic and thermal Free Energies=         -280.450844

                     E (Thermal)             CV                S
                      KCal/Mol        Cal/Mol-Kelvin    Cal/Mol-Kelvin
 Total                   16.395             12.014             66.038
 Electronic               0.000              0.000              0.000
 Translational            0.889              2.981             38.341
 Rotational               0.889              2.981             23.045
 Vibrational             14.618              6.052              4.652
 Vibration     1          0.631              1.860              2.277
 Vibration     2          0.714              1.613              1.253
 Vibration     3          0.816              1.343              0.771

                       ! Non-Optimized Parameters !

 1\1\GINC-N2126\Freq\RMP2-FC\Aug-CC-pVTZ\H1N1O3\CGAVINH\21-Feb-2022\1\\
 #p freq mp2/aug-cc-pvtz density=current\\title\\0,1\H\O,1,r1\O,2,r2,1,
 a1\N,3,r3,2,a2,1,d1,0\O,4,r4,3,a3,2,d2,0\\r1=0.96897556\r2=1.45491931\
 r3=1.45878406\r4=1.15951758\a1=97.59494903\a2=102.29752444\a3=109.0695
 5123\d1=180.\d2=180.\\Version=ES64L-G16RevB.01\State=1-A'\HF=-279.5033
 958\MP2=-280.4465389\RMSD=3.497e-09\RMSF=6.470e-03\ZeroPoint=0.0219363
 \Thermal=0.0261273\Dipole=-0.1293169,0.,-0.5317213\DipoleDeriv=0.26633
 17,0.,0.0481124,0.,0.3551771,0.,0.081399,0.,0.2742616,-0.3259847,0.,-0

 Normal termination of Gaussian 16 at Mon Feb 21 20:33:44 2022.
