 Gaussian 16, Revision B.01,
 Gaussian 16:  ES64L-G16RevB.01 20-Dec-2017

 ---------------------------------------
 #p freq mp2/aug-cc-pvtz density=current
 ---------------------------------------

 -----
 title
 -----
 Symbolic Z-matrix:
 Charge =  0 Multiplicity = 1

                         Standard orientation:
 ---------------------------------------------------------------------
 Center     Atomic      Atomic             Coordinates (Angstroms)
 Number     Number       Type             X           Y           Z
 ---------------------------------------------------------------------
      1          1           0        1.588518    1.640028   -0.000000
      2          8           0        1.454895    0.680310   -0.000000
      3          8           0       -0.000000    0.688726   -0.000000
      4          7           0       -0.264514   -0.745876    0.000000
      5          8           0       -1.422010   -0.921398    0.000000
 ---------------------------------------------------------------------

 SCF Done:  E(RHF) =  -279.501252395     A.U. after   14 cycles
 E2 =    -0.9452720425D+00 EUMP2 =    -0.28044652443711D+03
 E2 =    -0.9452720425D+00 EUMP2 =    -0.28044652443711D+03

 The electronic state is 1-A'.
 Alpha  occ. eigenvalues --  -20.69139 -20.68381 -20.65924 -15.81217  -1.62412
 Alpha  occ. eigenvalues --   -1.49638  -1.25331  -0.94854  -0.77454  -0.75826
 Alpha  occ. eigenvalues --   -0.71212  -0.67587  -0.61984  -0.59102  -0.48539
 Alpha  occ. eigenvalues --   -0.47295
 Alpha virt. eigenvalues --    0.02962   0.07194   0.08590   0.10113   0.13414
 Alpha virt. eigenvalues --    0.13420   0.14434   0.15519   0.17816   0.19389
 Alpha virt. eigenvalues --    0.19960   0.20636   0.22117   0.23555   0.23757

 Mulliken charges:
               1
     1  H    0.247022
     2  O   -0.196608
     3  O   -0.150708
     4  N    0.295423
     5  O   -0.195129
 Sum of Mulliken charges =  -0.00000

 Dipole moment (field-independent basis, Debye):
    X=              0.5618    Y=              1.3413    Z=             -0.0000  Tot=              1.4542
 Quadrupole moment (field-independent basis, Debye-Ang):
   XX=            -22.2411   YY=            -18.8374   ZZ=            -22.0061
   XY=              3.3169   XZ=             -0.0000   YZ=              0.0000

  Exact polarizability:  34.004   9.182  29.853  -0.000  -0.000  17.901
 Approx polarizability:  29.018   4.836  23.406  -0.000  -0.000  15.512

 ******    1 imaginary frequencies (negative Signs) ******

                      1                      2                      3
                     A"                     A"                     A'
 Frequencies --   -253.4489               223.3949               344.9369
 Red. masses --      1.1367                10.4224                 8.4881
 Frc consts  --      0.0430                 0.3065                 0.5950
 IR Inten    --    125.0389                 0.7432                17.0007

                      4                      5                      6
                     A'                     A'                     A'
 Frequencies --    471.3392               786.8607               966.4456
 Red. masses --     12.7554                13.1616                15.5508
 Frc consts  --      1.6696                 4.8013                 8.5577
 IR Inten    --    188.2813               168.1989                20.4378

                      7                      8                      9
                     A'                     A'                     A'
 Frequencies --   1370.5913              1678.4253              3778.6023
 Red. masses --      1.1302                13.1538                 1.0675
 Frc consts  --      1.2509                21.8325                 8.9797
 IR Inten    --    150.2655               141.4235                78.2642

 - Thermochemistry -
 -------------------
 Temperature   298.150 Kelvin.  Pressure   1.00000 Atm.
 Atom     1 has atomic number  1 and mass   1.00783

 Molecular mass:    62.99564 amu.
 Principal axes and moments of inertia in atomic units:
                           1         2         3
     Eigenvalues --    33.99102 354.22530 388.21632
           X            0.81910  -0.57365   0.00000
           Y            0.57365   0.81910   0.00000
           Z            0.00000  -0.00000   1.00000
 This molecule is an asymmetric top.
 Rotational symmetry number  1.
 Rotational temperatures (Kelvin)      2.54814     0.24452     0.22311
 Rotational constants (GHZ):          53.09465     5.09490     4.64880
    1 imaginary frequencies ignored.
 Zero-point vibrational energy      57543.9 (Joules/Mol)
                                   13.75333 (Kcal/Mol)
 Warning -- explicit consideration of   3 degrees of freedom as
           vibrations may cause significant error
 Vibrational temperatures:    321.42   496.29   678.15  1132.12  1390.50
          (Kelvin)           1971.98  2414.88  5436.57

 Zero-point correction=                           0.021917 (Hartree/Particle)
 Thermal correction to Energy=                    0.026023
 Thermal correction to Enthalpy=                  0.026967
 Thermal correction to Gibbs Free Energy=        -0.004206
 Sum of electronic and zero-point Energies=           -280.424607
 Sum of electronic and thermal Energies=              -280.420502
 Sum of electronic and thermal Enthalpies=            -280.419557
 Sum of electronic and thermal Free Energies=         -280.450730

                     E (Thermal)             CV                S
                      KCal/Mol        Cal/Mol-Kelvin    Cal/Mol-Kelvin
 Total                   16.330             11.911             65.608
 Electronic               0.000              0.000              0.000
 Translational            0.889              2.981             38.341
 Rotational               0.889              2.981             23.062
 Vibrational             14.552              5.949              4.206
 Vibration     1          0.649              1.805              1.931
 Vibration     2          0.723              1.586              1.189
 Vibration     3          0.828              1.314              0.734

                       ! Non-Optimized Parameters !

 1\1\GINC-N2128\Freq\RMP2-FC\Aug-CC-pVTZ\H1N1O3\CGAVINH\21-Feb-2022\1\\
 #p freq mp2/aug-cc-pvtz density=current\\title\\0,1\H\O,1,r1\O,2,r2,1,
 a1\N,3,r3,2,a2,1,d1,0\O,4,r4,3,a3,2,d2,0\\r1=0.96897556\r2=1.45491931\
 r3=1.45878406\r4=1.17072885\a1=97.59494903\a2=100.11547288\a3=109.0695
 5123\d1=180.\d2=180.\\Version=ES64L-G16RevB.01\State=1-A'\HF=-279.5012
 524\MP2=-280.4465244\RMSD=3.775e-09\RMSF=2.238e-03\ZeroPoint=0.0219173
 \Thermal=0.0260229\Dipole=-0.1461304,0.,-0.5531498\DipoleDeriv=0.26897
 06,0.,0.0509729,0.,0.3554278,0.,0.0766232,0.,0.27008,-0.3120835,0.,-0.

 Normal termination of Gaussian 16 at Mon Feb 21 20:51:49 2022.
