 Gaussian 16, Revision B.01,
 Gaussian 16:  ES64L-G16RevB.01 20-Dec-2017

 ---------------------------------------
 #p freq mp2/aug-cc-pvtz density=current
 ---------------------------------------

 -----
 title
 -----
 Symbolic Z-matrix:
 Charge =  0 Multiplicity = 1

                         Standard orientation:
 ---------------------------------------------------------------------
 Center     Atomic      Atomic             Coordinates (Angstroms)
 Number     Number       Type             X           Y           Z
 ---------------------------------------------------------------------
      1          1           0        1.553152    1.666589   -0.000000
      2          8           0        1.454251    0.702674   -0.000000
      3          8           0        0.000000    0.658580    0.000000
      4          7           0       -0.261628   -0.744723    0.000000
      5          8           0       -1.419471   -0.917945    0.000000
 ---------------------------------------------------------------------

 SCF Done:  E(RHF) =  -279.504434051     A.U. after   14 cycles
 E2 =    -0.9420832995D+00 EUMP2 =    -0.28044651735100D+03
 E2 =    -0.9420832995D+00 EUMP2 =    -0.28044651735100D+03

 The electronic state is 1-A'.
 Alpha  occ. eigenvalues --  -20.69618 -20.67680 -20.66380 -15.80784  -1.62643
 Alpha  occ. eigenvalues --   -1.49989  -1.26390  -0.94589  -0.77538  -0.76307
 Alpha  occ. eigenvalues --   -0.71756  -0.67776  -0.61878  -0.59100  -0.48831
 Alpha  occ. eigenvalues --   -0.47355
 Alpha virt. eigenvalues --    0.02877   0.07573   0.08648   0.10204   0.13367
 Alpha virt. eigenvalues --    0.13408   0.14345   0.15392   0.17757   0.19420
 Alpha virt. eigenvalues --    0.19998   0.21002   0.21982   0.23402   0.23778

 Mulliken charges:
               1
     1  H    0.250496
     2  O   -0.199457
     3  O   -0.126462
     4  N    0.282307
     5  O   -0.206883
 Sum of Mulliken charges =  -0.00000

 Dipole moment (field-independent basis, Debye):
    X=              0.6517    Y=              1.5385    Z=             -0.0000  Tot=              1.6709
 Quadrupole moment (field-independent basis, Debye-Ang):
   XX=            -22.5234   YY=            -18.7473   ZZ=            -21.9651
   XY=              3.1966   XZ=              0.0000   YZ=             -0.0000

  Exact polarizability:  34.032   9.295  29.613  -0.000   0.000  17.824
 Approx polarizability:  28.869   4.907  22.848  -0.000  -0.000  15.473

 ******    1 imaginary frequencies (negative Signs) ******

                      1                      2                      3
                     A"                     A"                     A'
 Frequencies --   -260.7975               215.3582               351.4266
 Red. masses --      1.1471                10.0507                 8.6711
 Frc consts  --      0.0460                 0.2746                 0.6309
 IR Inten    --    123.8902                 0.9572                 2.2197

                      4                      5                      6
                     A'                     A'                     A'
 Frequencies --    515.3701               810.9390               972.0125
 Red. masses --     12.2989                12.4327                15.1996
 Frc consts  --      1.9247                 4.8172                 8.4611
 IR Inten    --    160.7849               199.7948                26.7198

                      7                      8                      9
                     A'                     A'                     A'
 Frequencies --   1377.3448              1692.3824              3779.3559
 Red. masses --      1.1386                13.1057                 1.0675
 Frc consts  --      1.2727                22.1160                 8.9839
 IR Inten    --    158.7250               126.2529                81.9242

 - Thermochemistry -
 -------------------
 Temperature   298.150 Kelvin.  Pressure   1.00000 Atm.
 Atom     1 has atomic number  1 and mass   1.00783

 Molecular mass:    62.99564 amu.
 Principal axes and moments of inertia in atomic units:
                           1         2         3
     Eigenvalues --    32.03870 354.49803 386.53673
           X            0.81810  -0.57508   0.00000
           Y            0.57508   0.81810   0.00000
           Z           -0.00000   0.00000   1.00000
 This molecule is an asymmetric top.
 Rotational symmetry number  1.
 Rotational temperatures (Kelvin)      2.70342     0.24433     0.22408
 Rotational constants (GHZ):          56.33003     5.09098     4.66900
    1 imaginary frequencies ignored.
 Zero-point vibrational energy      58103.8 (Joules/Mol)
                                   13.88713 (Kcal/Mol)
 Warning -- explicit consideration of   3 degrees of freedom as
           vibrations may cause significant error
 Vibrational temperatures:    309.85   505.62   741.50  1166.76  1398.51
          (Kelvin)           1981.69  2434.96  5437.65

 Zero-point correction=                           0.022131 (Hartree/Particle)
 Thermal correction to Energy=                    0.026200
 Thermal correction to Enthalpy=                  0.027144
 Thermal correction to Gibbs Free Energy=        -0.003952
 Sum of electronic and zero-point Energies=           -280.424387
 Sum of electronic and thermal Energies=              -280.420318
 Sum of electronic and thermal Enthalpies=            -280.419374
 Sum of electronic and thermal Free Energies=         -280.450470

                     E (Thermal)             CV                S
                      KCal/Mol        Cal/Mol-Kelvin    Cal/Mol-Kelvin
 Total                   16.440             11.761             65.447
 Electronic               0.000              0.000              0.000
 Translational            0.889              2.981             38.341
 Rotational               0.889              2.981             23.000
 Vibrational             14.663              5.800              4.107
 Vibration     1          0.645              1.818              1.998
 Vibration     2          0.728              1.572              1.160
 Vibration     3          0.870              1.216              0.621

                       ! Non-Optimized Parameters !

 1\1\GINC-N2128\Freq\RMP2-FC\Aug-CC-pVTZ\H1N1O3\CGAVINH\21-Feb-2022\1\\
 #p freq mp2/aug-cc-pvtz density=current\\title\\0,1\H\O,1,r1\O,2,r2,1,
 a1\N,3,r3,2,a2,1,d1,0\O,4,r4,3,a3,2,d2,0\\r1=0.96897556\r2=1.45491931\
 r3=1.42748367\r4=1.17072885\a1=97.59494903\a2=102.29752444\a3=109.0695
 5123\d1=180.\d2=180.\\Version=ES64L-G16RevB.01\State=1-A'\HF=-279.5044
 341\MP2=-280.4465174\RMSD=3.406e-09\RMSF=3.726e-03\ZeroPoint=0.0221306
 \Thermal=0.0261995\Dipole=-0.1932887,0.,-0.6283091\DipoleDeriv=0.26902
 01,0.,0.0511949,0.,0.3564645,0.,0.0820205,0.,0.2751963,-0.3229618,0.,-

 Normal termination of Gaussian 16 at Mon Feb 21 20:25:20 2022.
