 Gaussian 16, Revision B.01,
 Gaussian 16:  ES64L-G16RevB.01 20-Dec-2017

 ---------------------------------------
 #p freq mp2/aug-cc-pvtz density=current
 ---------------------------------------

 -----
 title
 -----
 Symbolic Z-matrix:
 Charge =  0 Multiplicity = 1

                         Standard orientation:
 ---------------------------------------------------------------------
 Center     Atomic      Atomic             Coordinates (Angstroms)
 Number     Number       Type             X           Y           Z
 ---------------------------------------------------------------------
      1          1           0        1.572287    1.659971   -0.000000
      2          8           0        1.454831    0.698141   -0.000000
      3          8           0       -0.000000    0.682077    0.000000
      4          7           0       -0.263466   -0.752718   -0.000000
      5          8           0       -1.420834   -0.929086    0.000000
 ---------------------------------------------------------------------

 SCF Done:  E(RHF) =  -279.501500394     A.U. after   14 cycles
 E2 =    -0.9451658395D+00 EUMP2 =    -0.28044666623379D+03
 E2 =    -0.9451658395D+00 EUMP2 =    -0.28044666623379D+03

 The electronic state is 1-A'.
 Alpha  occ. eigenvalues --  -20.69120 -20.68401 -20.65955 -15.81245  -1.62408
 Alpha  occ. eigenvalues --   -1.49611  -1.25379  -0.94833  -0.77378  -0.75865
 Alpha  occ. eigenvalues --   -0.71198  -0.67739  -0.62011  -0.59036  -0.48532
 Alpha  occ. eigenvalues --   -0.47276
 Alpha virt. eigenvalues --    0.02962   0.07183   0.08592   0.10138   0.13407
 Alpha virt. eigenvalues --    0.13410   0.14423   0.15493   0.17820   0.19402
 Alpha virt. eigenvalues --    0.19968   0.20641   0.22100   0.23552   0.23749

 Mulliken charges:
               1
     1  H    0.248436
     2  O   -0.198793
     3  O   -0.149159
     4  N    0.293884
     5  O   -0.194368
 Sum of Mulliken charges =  -0.00000

 Dipole moment (field-independent basis, Debye):
    X=              0.5395    Y=              1.3500    Z=              0.0000  Tot=              1.4538
 Quadrupole moment (field-independent basis, Debye-Ang):
   XX=            -22.3371   YY=            -18.7437   ZZ=            -22.0079
   XY=              3.2939   XZ=              0.0000   YZ=             -0.0000

  Exact polarizability:  34.008   9.304  30.016  -0.000   0.000  17.912
 Approx polarizability:  29.016   4.949  23.450  -0.000   0.000  15.516

 ******    1 imaginary frequencies (negative Signs) ******

                      1                      2                      3
                     A"                     A"                     A'
 Frequencies --   -260.4161               225.9280               343.8941
 Red. masses --      1.1376                10.4587                 8.5203
 Frc consts  --      0.0455                 0.3145                 0.5937
 IR Inten    --    124.9050                 0.7590                10.9579

                      4                      5                      6
                     A'                     A'                     A'
 Frequencies --    462.5492               786.2189               966.8058
 Red. masses --     12.6089                13.0601                15.4901
 Frc consts  --      1.5894                 4.7565                 8.5307
 IR Inten    --    193.8496               169.2871                21.3719

                      7                      8                      9
                     A'                     A'                     A'
 Frequencies --   1370.8792              1677.9887              3778.6604
 Red. masses --      1.1315                13.1763                 1.0675
 Frc consts  --      1.2529                21.8586                 8.9803
 IR Inten    --    151.4417               140.9477                80.1162

 - Thermochemistry -
 -------------------
 Temperature   298.150 Kelvin.  Pressure   1.00000 Atm.
 Atom     1 has atomic number  1 and mass   1.00783

 Molecular mass:    62.99564 amu.
 Principal axes and moments of inertia in atomic units:
                           1         2         3
     Eigenvalues --    33.49882 356.74816 390.24698
           X            0.81543  -0.57886   0.00000
           Y            0.57886   0.81543   0.00000
           Z           -0.00000   0.00000   1.00000
 This molecule is an asymmetric top.
 Rotational symmetry number  1.
 Rotational temperatures (Kelvin)      2.58558     0.24279     0.22195
 Rotational constants (GHZ):          53.87477     5.05887     4.62461
    1 imaginary frequencies ignored.
 Zero-point vibrational energy      57498.1 (Joules/Mol)
                                   13.74237 (Kcal/Mol)
 Warning -- explicit consideration of   3 degrees of freedom as
           vibrations may cause significant error
 Vibrational temperatures:    325.06   494.79   665.51  1131.19  1391.02
          (Kelvin)           1972.39  2414.25  5436.65

 Zero-point correction=                           0.021900 (Hartree/Particle)
 Thermal correction to Energy=                    0.026010
 Thermal correction to Enthalpy=                  0.026954
 Thermal correction to Gibbs Free Energy=        -0.004222
 Sum of electronic and zero-point Energies=           -280.424766
 Sum of electronic and thermal Energies=              -280.420656
 Sum of electronic and thermal Enthalpies=            -280.419712
 Sum of electronic and thermal Free Energies=         -280.450888

                     E (Thermal)             CV                S
                      KCal/Mol        Cal/Mol-Kelvin    Cal/Mol-Kelvin
 Total                   16.322             11.929             65.616
 Electronic               0.000              0.000              0.000
 Translational            0.889              2.981             38.341
 Rotational               0.889              2.981             23.060
 Vibrational             14.544              5.968              4.215
 Vibration     1          0.650              1.802              1.911
 Vibration     2          0.723              1.588              1.194
 Vibration     3          0.820              1.333              0.759

                       ! Non-Optimized Parameters !

 1\1\GINC-N2109\Freq\RMP2-FC\Aug-CC-pVTZ\H1N1O3\CGAVINH\21-Feb-2022\1\\
 #p freq mp2/aug-cc-pvtz density=current\\title\\0,1\H\O,1,r1\O,2,r2,1,
 a1\N,3,r3,2,a2,1,d1,0\O,4,r4,3,a3,2,d2,0\\r1=0.96897556\r2=1.45491931\
 r3=1.45878406\r4=1.17072885\a1=97.59494903\a2=101.03771638\a3=109.0695
 5123\d1=180.\d2=180.\\Version=ES64L-G16RevB.01\State=1-A'\HF=-279.5015
 004\MP2=-280.4466662\RMSD=3.781e-09\RMSF=1.266e-03\ZeroPoint=0.0218999
 \Thermal=0.0260101\Dipole=-0.1462902,0.,-0.5529511\DipoleDeriv=0.26790
 45,0.,0.0498465,0.,0.3554793,0.,0.0789814,0.,0.2725078,-0.3188049,0.,-

 Normal termination of Gaussian 16 at Mon Feb 21 20:50:01 2022.
