 Gaussian 16, Revision B.01,
 Gaussian 16:  ES64L-G16RevB.01 20-Dec-2017

 ---------------------------------------
 #p freq mp2/aug-cc-pvtz density=current
 ---------------------------------------

 -----
 title
 -----
 Symbolic Z-matrix:
 Charge =  0 Multiplicity = 1

                         Standard orientation:
 ---------------------------------------------------------------------
 Center     Atomic      Atomic             Coordinates (Angstroms)
 Number     Number       Type             X           Y           Z
 ---------------------------------------------------------------------
      1          1           0        1.551220    1.692402   -0.000000
      2          8           0        1.454164    0.728299   -0.000000
      3          8           0        0.000000    0.681422    0.000000
      4          7           0       -0.264619   -0.753160    0.000000
      5          8           0       -1.416524   -0.962256    0.000000
 ---------------------------------------------------------------------

 SCF Done:  E(RHF) =  -279.501352085     A.U. after   14 cycles
 E2 =    -0.9451793613D+00 EUMP2 =    -0.28044653144598D+03
 E2 =    -0.9451793613D+00 EUMP2 =    -0.28044653144598D+03

 The electronic state is 1-A'.
 Alpha  occ. eigenvalues --  -20.69158 -20.68487 -20.66101 -15.81224  -1.62268
 Alpha  occ. eigenvalues --   -1.49695  -1.25573  -0.94765  -0.77366  -0.75863
 Alpha  occ. eigenvalues --   -0.71149  -0.67979  -0.62109  -0.59084  -0.48600
 Alpha  occ. eigenvalues --   -0.47041
 Alpha virt. eigenvalues --    0.02950   0.07237   0.08561   0.10173   0.13405
 Alpha virt. eigenvalues --    0.13405   0.14402   0.15464   0.17808   0.19424
 Alpha virt. eigenvalues --    0.19975   0.20602   0.22081   0.23379   0.23716

 Mulliken charges:
               1
     1  H    0.250299
     2  O   -0.198030
     3  O   -0.149423
     4  N    0.289815
     5  O   -0.192661
 Sum of Mulliken charges =  -0.00000

 Dipole moment (field-independent basis, Debye):
    X=              0.5028    Y=              1.3818    Z=             -0.0000  Tot=              1.4704
 Quadrupole moment (field-independent basis, Debye-Ang):
   XX=            -22.4158   YY=            -18.6267   ZZ=            -22.0188
   XY=              3.2967   XZ=              0.0000   YZ=             -0.0000

  Exact polarizability:  34.043   9.626  30.507  -0.000  -0.000  17.959
 Approx polarizability:  28.958   5.320  23.697  -0.000  -0.000  15.537

 ******    1 imaginary frequencies (negative Signs) ******

                      1                      2                      3
                     A"                     A"                     A'
 Frequencies --   -274.7138               226.2946               340.3853
 Red. masses --      1.1456                 9.8663                 8.5589
 Frc consts  --      0.0509                 0.2977                 0.5843
 IR Inten    --    124.2381                 1.2594                 7.6622

                      4                      5                      6
                     A'                     A'                     A'
 Frequencies --    437.5388               787.4678               965.8243
 Red. masses --     12.5318                12.9026                15.2686
 Frc consts  --      1.4135                 4.7140                 8.3916
 IR Inten    --    198.6884               177.2501                25.7049

                      7                      8                      9
                     A'                     A'                     A'
 Frequencies --   1370.8824              1676.7879              3778.9879
 Red. masses --      1.1338                13.1331                 1.0676
 Frc consts  --      1.2554                21.7557                 8.9824
 IR Inten    --    156.1059               145.2796                83.8482

 - Thermochemistry -
 -------------------
 Temperature   298.150 Kelvin.  Pressure   1.00000 Atm.
 Atom     1 has atomic number  1 and mass   1.00783

 Molecular mass:    62.99564 amu.
 Principal axes and moments of inertia in atomic units:
                           1         2         3
     Eigenvalues --    32.58474 363.05855 395.64329
           X            0.80628  -0.59153   0.00000
           Y            0.59153   0.80628   0.00000
           Z           -0.00000   0.00000   1.00000
 This molecule is an asymmetric top.
 Rotational symmetry number  1.
 Rotational temperatures (Kelvin)      2.65811     0.23857     0.21892
 Rotational constants (GHZ):          55.38608     4.97094     4.56154
    1 imaginary frequencies ignored.
 Zero-point vibrational energy      57326.1 (Joules/Mol)
                                   13.70126 (Kcal/Mol)
 Warning -- explicit consideration of   3 degrees of freedom as
           vibrations may cause significant error
 Vibrational temperatures:    325.59   489.74   629.52  1132.99  1389.61
          (Kelvin)           1972.39  2412.52  5437.12

 Zero-point correction=                           0.021834 (Hartree/Particle)
 Thermal correction to Energy=                    0.025969
 Thermal correction to Enthalpy=                  0.026913
 Thermal correction to Gibbs Free Energy=        -0.004307
 Sum of electronic and zero-point Energies=           -280.424697
 Sum of electronic and thermal Energies=              -280.420562
 Sum of electronic and thermal Enthalpies=            -280.419618
 Sum of electronic and thermal Free Energies=         -280.450838

                     E (Thermal)             CV                S
                      KCal/Mol        Cal/Mol-Kelvin    Cal/Mol-Kelvin
 Total                   16.296             11.990             65.708
 Electronic               0.000              0.000              0.000
 Translational            0.889              2.981             38.341
 Rotational               0.889              2.981             23.064
 Vibrational             14.518              6.029              4.304
 Vibration     1          0.650              1.801              1.908
 Vibration     2          0.720              1.595              1.210
 Vibration     3          0.798              1.388              0.834

                       ! Non-Optimized Parameters !

 1\1\GINC-N2128\Freq\RMP2-FC\Aug-CC-pVTZ\H1N1O3\CGAVINH\21-Feb-2022\1\\
 #p freq mp2/aug-cc-pvtz density=current\\title\\0,1\H\O,1,r1\O,2,r2,1,
 a1\N,3,r3,2,a2,1,d1,0\O,4,r4,3,a3,2,d2,0\\r1=0.96897556\r2=1.45491931\
 r3=1.45878406\r4=1.17072885\a1=97.59494903\a2=102.29752444\a3=110.7395
 7795\d1=180.\d2=180.\\Version=ES64L-G16RevB.01\State=1-A'\HF=-279.5013
 521\MP2=-280.4465314\RMSD=3.874e-09\RMSF=3.101e-03\ZeroPoint=0.0218343
 \Thermal=0.025969\Dipole=-0.1423595,0.,-0.5607289\DipoleDeriv=0.267279
 8,0.,0.0487737,0.,0.3558557,0.,0.0835054,0.,0.2780863,-0.3248099,0.,-0

 Normal termination of Gaussian 16 at Mon Feb 21 20:56:12 2022.
