 Gaussian 16, Revision B.01,
 Gaussian 16:  ES64L-G16RevB.01 20-Dec-2017

 ---------------------------------------
 #p freq mp2/aug-cc-pvtz density=current
 ---------------------------------------

 -----
 title
 -----
 Symbolic Z-matrix:
 Charge =  0 Multiplicity = 1

                         Standard orientation:
 ---------------------------------------------------------------------
 Center     Atomic      Atomic             Coordinates (Angstroms)
 Number     Number       Type             X           Y           Z
 ---------------------------------------------------------------------
      1          1           0        1.565694    1.679894    0.000000
      2          8           0        1.465948    0.716066    0.000000
      3          8           0        0.000000    0.672904    0.000000
      4          7           0       -0.268622   -0.760934   -0.000000
      5          8           0       -1.426616   -0.933140   -0.000000
 ---------------------------------------------------------------------

 SCF Done:  E(RHF) =  -279.500656380     A.U. after   14 cycles
 E2 =    -0.9460061268D+00 EUMP2 =    -0.28044666250652D+03
 E2 =    -0.9460061268D+00 EUMP2 =    -0.28044666250652D+03

 The electronic state is 1-A'.
 Alpha  occ. eigenvalues --  -20.69154 -20.68450 -20.66098 -15.81306  -1.62370
 Alpha  occ. eigenvalues --   -1.49116  -1.25648  -0.94791  -0.77158  -0.75826
 Alpha  occ. eigenvalues --   -0.71077  -0.67937  -0.61935  -0.58780  -0.48729
 Alpha  occ. eigenvalues --   -0.47276
 Alpha virt. eigenvalues --    0.02960   0.07166   0.08564   0.10166   0.13335
 Alpha virt. eigenvalues --    0.13397   0.14402   0.15448   0.17828   0.19428
 Alpha virt. eigenvalues --    0.19985   0.20623   0.21876   0.23115   0.23728

 Mulliken charges:
               1
     1  H    0.250926
     2  O   -0.202983
     3  O   -0.147762
     4  N    0.292693
     5  O   -0.192874
 Sum of Mulliken charges =  -0.00000

 Dipole moment (field-independent basis, Debye):
    X=              0.5104    Y=              1.3504    Z=              0.0000  Tot=              1.4436
 Quadrupole moment (field-independent basis, Debye-Ang):
   XX=            -22.4049   YY=            -18.6586   ZZ=            -22.0265
   XY=              3.2925   XZ=             -0.0000   YZ=              0.0000

  Exact polarizability:  34.287   9.490  30.206   0.000  -0.000  17.966
 Approx polarizability:  29.352   5.097  23.495   0.000   0.000  15.541

 ******    1 imaginary frequencies (negative Signs) ******

                      1                      2                      3
                     A"                     A"                     A'
 Frequencies --   -273.6040               232.8338               342.9180
 Red. masses --      1.1407                10.3640                 8.6893
 Frc consts  --      0.0503                 0.3310                 0.6020
 IR Inten    --    124.3183                 0.8752                 3.1234

                      4                      5                      6
                     A'                     A'                     A'
 Frequencies --    448.2306               777.5262               944.3511
 Red. masses --     12.2103                13.0876                15.0338
 Frc consts  --      1.4454                 4.6617                 7.8993
 IR Inten    --    199.3502               165.7107                29.5831

                      7                      8                      9
                     A'                     A'                     A'
 Frequencies --   1358.1616              1676.7431              3779.8081
 Red. masses --      1.1327                13.3359                 1.0676
 Frc consts  --      1.2310                22.0905                 8.9868
 IR Inten    --    151.8448               141.2045                81.9617

 - Thermochemistry -
 -------------------
 Temperature   298.150 Kelvin.  Pressure   1.00000 Atm.
 Atom     1 has atomic number  1 and mass   1.00783

 Molecular mass:    62.99564 amu.
 Principal axes and moments of inertia in atomic units:
                           1         2         3
     Eigenvalues --    33.01141 362.12173 395.13313
           X            0.81440  -0.58030   0.00000
           Y            0.58030   0.81440   0.00000
           Z           -0.00000   0.00000   1.00000
 This molecule is an asymmetric top.
 Rotational symmetry number  1.
 Rotational temperatures (Kelvin)      2.62376     0.23918     0.21920
 Rotational constants (GHZ):          54.67023     4.98380     4.56743
    1 imaginary frequencies ignored.
 Zero-point vibrational energy      57184.9 (Joules/Mol)
                                   13.66752 (Kcal/Mol)
 Warning -- explicit consideration of   3 degrees of freedom as
           vibrations may cause significant error
 Vibrational temperatures:    335.00   493.38   644.90  1118.69  1358.71
          (Kelvin)           1954.09  2412.46  5438.30

 Zero-point correction=                           0.021781 (Hartree/Particle)
 Thermal correction to Energy=                    0.025901
 Thermal correction to Enthalpy=                  0.026845
 Thermal correction to Gibbs Free Energy=        -0.004343
 Sum of electronic and zero-point Energies=           -280.424882
 Sum of electronic and thermal Energies=              -280.420762
 Sum of electronic and thermal Enthalpies=            -280.419818
 Sum of electronic and thermal Free Energies=         -280.451005

                     E (Thermal)             CV                S
                      KCal/Mol        Cal/Mol-Kelvin    Cal/Mol-Kelvin
 Total                   16.253             11.999             65.640
 Electronic               0.000              0.000              0.000
 Translational            0.889              2.981             38.341
 Rotational               0.889              2.981             23.073
 Vibrational             14.475              6.038              4.227
 Vibration     1          0.654              1.791              1.857
 Vibration     2          0.722              1.590              1.199
 Vibration     3          0.807              1.365              0.801

                       ! Non-Optimized Parameters !

 1\1\GINC-N2109\Freq\RMP2-FC\Aug-CC-pVTZ\H1N1O3\CGAVINH\21-Feb-2022\1\\
 #p freq mp2/aug-cc-pvtz density=current\\title\\0,1\H\O,1,r1\O,2,r2,1,
 a1\N,3,r3,2,a2,1,d1,0\O,4,r4,3,a3,2,d2,0\\r1=0.96897556\r2=1.46658371\
 r3=1.45878406\r4=1.17072885\a1=97.59494903\a2=102.29752444\a3=109.0695
 5123\d1=180.\d2=180.\\Version=ES64L-G16RevB.01\State=1-A'\HF=-279.5006
 564\MP2=-280.4466625\RMSD=3.907e-09\RMSF=2.073e-03\ZeroPoint=0.0217806
 \Thermal=0.0259006\Dipole=-0.1450532,0.,-0.5491333\DipoleDeriv=0.26609
 8,0.,0.0476138,0.,0.3550531,0.,0.0838078,0.,0.2740571,-0.3277559,0.,-0

 Normal termination of Gaussian 16 at Mon Feb 21 20:10:38 2022.
