 Gaussian 16, Revision B.01,
 Gaussian 16:  ES64L-G16RevB.01 20-Dec-2017

 ---------------------------------------
 #p freq mp2/aug-cc-pvtz density=current
 ---------------------------------------

 -----
 title
 -----
 Symbolic Z-matrix:
 Charge =  0 Multiplicity = 1

                         Standard orientation:
 ---------------------------------------------------------------------
 Center     Atomic      Atomic             Coordinates (Angstroms)
 Number     Number       Type             X           Y           Z
 ---------------------------------------------------------------------
      1          1           0        1.548227    1.684588    0.000000
      2          8           0        1.454019    0.720203    0.000000
      3          8           0       -0.000000    0.669030    0.000000
      4          7           0       -0.260380   -0.766328   -0.000000
      5          8           0       -1.419715   -0.929270   -0.000000
 ---------------------------------------------------------------------

 SCF Done:  E(RHF) =  -279.501690538     A.U. after   14 cycles
 E2 =    -0.9449989921D+00 EUMP2 =    -0.28044668953053D+03
 E2 =    -0.9449989921D+00 EUMP2 =    -0.28044668953053D+03

 The electronic state is 1-A'.
 Alpha  occ. eigenvalues --  -20.69055 -20.68402 -20.65947 -15.81310  -1.62469
 Alpha  occ. eigenvalues --   -1.49516  -1.25377  -0.94828  -0.77235  -0.75945
 Alpha  occ. eigenvalues --   -0.71195  -0.67917  -0.62014  -0.58874  -0.48485
 Alpha  occ. eigenvalues --   -0.47344
 Alpha virt. eigenvalues --    0.02969   0.07134   0.08610   0.10170   0.13391
 Alpha virt. eigenvalues --    0.13391   0.14412   0.15448   0.17834   0.19414
 Alpha virt. eigenvalues --    0.19984   0.20651   0.22080   0.23621   0.23749

 Mulliken charges:
               1
     1  H    0.250218
     2  O   -0.203304
     3  O   -0.146031
     4  N    0.292655
     5  O   -0.193538
 Sum of Mulliken charges =   0.00000

 Dipole moment (field-independent basis, Debye):
    X=              0.5103    Y=              1.3503    Z=              0.0000  Tot=              1.4435
 Quadrupole moment (field-independent basis, Debye-Ang):
   XX=            -22.4942   YY=            -18.6108   ZZ=            -22.0064
   XY=              3.2366   XZ=             -0.0000   YZ=              0.0000

  Exact polarizability:  33.982   9.398  30.133   0.000  -0.000  17.913
 Approx polarizability:  29.029   5.003  23.441   0.000   0.000  15.515

 ******    1 imaginary frequencies (negative Signs) ******

                      1                      2                      3
                     A"                     A"                     A'
 Frequencies --   -266.7421               229.5161               341.5458
 Red. masses --      1.1361                10.8286                 8.6389
 Frc consts  --      0.0476                 0.3361                 0.5938
 IR Inten    --    124.9138                 0.5926                 3.7040

                      4                      5                      6
                     A'                     A'                     A'
 Frequencies --    458.1361               784.3117               967.9895
 Red. masses --     12.2159                12.9341                15.4482
 Frc consts  --      1.5107                 4.6877                 8.5285
 IR Inten    --    200.0184               167.1772                21.3489

                      7                      8                      9
                     A'                     A'                     A'
 Frequencies --   1371.3653              1677.5428              3778.5626
 Red. masses --      1.1332                13.2433                 1.0675
 Frc consts  --      1.2557                21.9580                 8.9802
 IR Inten    --    151.5401               138.1930                81.9099

 - Thermochemistry -
 -------------------
 Temperature   298.150 Kelvin.  Pressure   1.00000 Atm.
 Atom     1 has atomic number  1 and mass   1.00783

 Molecular mass:    62.99564 amu.
 Principal axes and moments of inertia in atomic units:
                           1         2         3
     Eigenvalues --    32.96988 358.73934 391.70922
           X            0.81201  -0.58364   0.00000
           Y            0.58364   0.81201   0.00000
           Z           -0.00000   0.00000   1.00000
 This molecule is an asymmetric top.
 Rotational symmetry number  1.
 Rotational temperatures (Kelvin)      2.62706     0.24144     0.22112
 Rotational constants (GHZ):          54.73909     5.03079     4.60735
    1 imaginary frequencies ignored.
 Zero-point vibrational energy      57474.4 (Joules/Mol)
                                   13.73671 (Kcal/Mol)
 Warning -- explicit consideration of   3 degrees of freedom as
           vibrations may cause significant error
 Vibrational temperatures:    330.22   491.41   659.16  1128.45  1392.72
          (Kelvin)           1973.09  2413.61  5436.51

 Zero-point correction=                           0.021891 (Hartree/Particle)
 Thermal correction to Energy=                    0.026002
 Thermal correction to Enthalpy=                  0.026947
 Thermal correction to Gibbs Free Energy=        -0.004225
 Sum of electronic and zero-point Energies=           -280.424799
 Sum of electronic and thermal Energies=              -280.420687
 Sum of electronic and thermal Enthalpies=            -280.419743
 Sum of electronic and thermal Free Energies=         -280.450914

                     E (Thermal)             CV                S
                      KCal/Mol        Cal/Mol-Kelvin    Cal/Mol-Kelvin
 Total                   16.317             11.940             65.606
 Electronic               0.000              0.000              0.000
 Translational            0.889              2.981             38.341
 Rotational               0.889              2.981             23.053
 Vibrational             14.539              5.978              4.212
 Vibration     1          0.652              1.796              1.883
 Vibration     2          0.721              1.592              1.205
 Vibration     3          0.816              1.343              0.772

                       ! Non-Optimized Parameters !

 1\1\GINC-N2228\Freq\RMP2-FC\Aug-CC-pVTZ\H1N1O3\CGAVINH\21-Feb-2022\1\\
 #p freq mp2/aug-cc-pvtz density=current\\title\\0,1\H\O,1,r1\O,2,r2,1,
 a1\N,3,r3,2,a2,1,d1,0\O,4,r4,3,a3,2,d2,0\\r1=0.96897556\r2=1.45491931\
 r3=1.45878406\r4=1.17072885\a1=97.59494903\a2=102.29752444\a3=108.2822
 9308\d1=180.\d2=180.\\Version=ES64L-G16RevB.01\State=1-A'\HF=-279.5016
 905\MP2=-280.4466895\RMSD=3.756e-09\RMSF=1.494e-03\ZeroPoint=0.0218908
 \Thermal=0.0260024\Dipole=-0.1481652,0.,-0.5482393\DipoleDeriv=0.26590
 89,0.,0.0480586,0.,0.3554,0.,0.0814743,0.,0.2743659,-0.3299165,0.,-0.2

 Normal termination of Gaussian 16 at Mon Feb 21 20:55:46 2022.
