 Gaussian 16, Revision B.01,
 Gaussian 16:  ES64L-G16RevB.01 20-Dec-2017

 ---------------------------------------
 #p freq mp2/aug-cc-pvtz density=current
 ---------------------------------------

 -----
 title
 -----
 Symbolic Z-matrix:
 Charge =  0 Multiplicity = 1

                         Standard orientation:
 ---------------------------------------------------------------------
 Center     Atomic      Atomic             Coordinates (Angstroms)
 Number     Number       Type             X           Y           Z
 ---------------------------------------------------------------------
      1          1           0        1.551426    1.675340    0.000000
      2          8           0        1.454173    0.711258    0.000000
      3          8           0       -0.000000    0.664677    0.000000
      4          7           0       -0.261630   -0.752081   -0.000000
      5          8           0       -1.419175   -0.927282   -0.000000
 ---------------------------------------------------------------------

 SCF Done:  E(RHF) =  -279.503343366     A.U. after   14 cycles
 E2 =    -0.9433228074D+00 EUMP2 =    -0.28044666617322D+03
 E2 =    -0.9433228074D+00 EUMP2 =    -0.28044666617322D+03

 The electronic state is 1-A'.
 Alpha  occ. eigenvalues --  -20.69394 -20.67999 -20.66219 -15.80994  -1.62521
 Alpha  occ. eigenvalues --   -1.49821  -1.25987  -0.94676  -0.77426  -0.76138
 Alpha  occ. eigenvalues --   -0.71502  -0.67844  -0.61951  -0.59036  -0.48705
 Alpha  occ. eigenvalues --   -0.47318
 Alpha virt. eigenvalues --    0.02913   0.07401   0.08627   0.10191   0.13380
 Alpha virt. eigenvalues --    0.13404   0.14371   0.15418   0.17786   0.19420
 Alpha virt. eigenvalues --    0.19990   0.20859   0.22027   0.23461   0.23761

 Mulliken charges:
               1
     1  H    0.250409
     2  O   -0.200354
     3  O   -0.135276
     4  N    0.286348
     5  O   -0.201127
 Sum of Mulliken charges =   0.00000

 Dipole moment (field-independent basis, Debye):
    X=              0.5908    Y=              1.4641    Z=              0.0000  Tot=              1.5788
 Quadrupole moment (field-independent basis, Debye-Ang):
   XX=            -22.5002   YY=            -18.6921   ZZ=            -21.9843
   XY=              3.2218   XZ=              0.0000   YZ=             -0.0000

  Exact polarizability:  34.017   9.369  29.881   0.000   0.000  17.867
 Approx polarizability:  28.925   4.988  23.125  -0.000   0.000  15.494

 ******    1 imaginary frequencies (negative Signs) ******

                      1                      2                      3
                     A"                     A"                     A'
 Frequencies --   -264.3593               221.2689               347.2399
 Red. masses --      1.1434                10.2600                 8.6534
 Frc consts  --      0.0471                 0.2960                 0.6147
 IR Inten    --    124.2635                 0.8712                 2.9086

                      4                      5                      6
                     A'                     A'                     A'
 Frequencies --    488.1641               798.8173               970.0497
 Red. masses --     12.2770                12.6722                15.2902
 Frc consts  --      1.7237                 4.7643                 8.4772
 IR Inten    --    179.8446               186.5273                24.7949

                      7                      8                      9
                     A'                     A'                     A'
 Frequencies --   1374.7284              1685.8529              3779.0895
 Red. masses --      1.1362                13.1448                 1.0675
 Frc consts  --      1.2652                22.0112                 8.9827
 IR Inten    --    156.2674               132.0438                82.2075

 - Thermochemistry -
 -------------------
 Temperature   298.150 Kelvin.  Pressure   1.00000 Atm.
 Atom     1 has atomic number  1 and mass   1.00783

 Molecular mass:    62.99564 amu.
 Principal axes and moments of inertia in atomic units:
                           1         2         3
     Eigenvalues --    32.37846 356.87103 389.24949
           X            0.81474  -0.57983   0.00000
           Y            0.57983   0.81474   0.00000
           Z            0.00000  -0.00000   1.00000
 This molecule is an asymmetric top.
 Rotational symmetry number  1.
 Rotational temperatures (Kelvin)      2.67505     0.24270     0.22252
 Rotational constants (GHZ):          55.73894     5.05712     4.63646
    1 imaginary frequencies ignored.
 Zero-point vibrational energy      57810.8 (Joules/Mol)
                                   13.81711 (Kcal/Mol)
 Warning -- explicit consideration of   3 degrees of freedom as
           vibrations may cause significant error
 Vibrational temperatures:    318.36   499.60   702.36  1149.32  1395.69
          (Kelvin)           1977.93  2425.57  5437.27

 Zero-point correction=                           0.022019 (Hartree/Particle)
 Thermal correction to Energy=                    0.026108
 Thermal correction to Enthalpy=                  0.027052
 Thermal correction to Gibbs Free Energy=        -0.004079
 Sum of electronic and zero-point Energies=           -280.424647
 Sum of electronic and thermal Energies=              -280.420559
 Sum of electronic and thermal Enthalpies=            -280.419614
 Sum of electronic and thermal Free Energies=         -280.450745

                     E (Thermal)             CV                S
                      KCal/Mol        Cal/Mol-Kelvin    Cal/Mol-Kelvin
 Total                   16.383             11.845             65.519
 Electronic               0.000              0.000              0.000
 Translational            0.889              2.981             38.341
 Rotational               0.889              2.981             23.024
 Vibrational             14.605              5.884              4.155
 Vibration     1          0.648              1.809              1.949
 Vibration     2          0.725              1.581              1.179
 Vibration     3          0.844              1.276              0.688

                       ! Non-Optimized Parameters !

 1\1\GINC-N2109\Freq\RMP2-FC\Aug-CC-pVTZ\H1N1O3\CGAVINH\21-Feb-2022\1\\
 #p freq mp2/aug-cc-pvtz density=current\\title\\0,1\H\O,1,r1\O,2,r2,1,
 a1\N,3,r3,2,a2,1,d1,0\O,4,r4,3,a3,2,d2,0\\r1=0.96897556\r2=1.45491931\
 r3=1.44071277\r4=1.17072885\a1=97.59494903\a2=102.29752444\a3=109.0695
 5123\d1=180.\d2=180.\\Version=ES64L-G16RevB.01\State=1-A'\HF=-279.5033
 434\MP2=-280.4466662\RMSD=3.557e-09\RMSF=2.155e-03\ZeroPoint=0.022019\
 Thermal=0.0261076\Dipole=-0.1734641,0.,-0.5964383\DipoleDeriv=0.267913
 5,0.,0.0499806,0.,0.356083,0.,0.0820947,0.,0.2754023,-0.3249886,0.,-0.

 Normal termination of Gaussian 16 at Mon Feb 21 20:23:53 2022.
