 Gaussian 16, Revision B.01,
 Gaussian 16:  ES64L-G16RevB.01 20-Dec-2017

 ---------------------------------------
 #p freq mp2/aug-cc-pvtz density=current
 ---------------------------------------

 -----
 title
 -----
 Symbolic Z-matrix:
 Charge =  0 Multiplicity = 1

                         Standard orientation:
 ---------------------------------------------------------------------
 Center     Atomic      Atomic             Coordinates (Angstroms)
 Number     Number       Type             X           Y           Z
 ---------------------------------------------------------------------
      1          1           0        1.523723    1.690950    0.000000
      2          8           0        1.454006    0.724485    0.000000
      3          8           0       -0.000000    0.672944    0.000000
      4          7           0       -0.260016   -0.762480   -0.000000
      5          8           0       -1.416957   -0.941629   -0.000000
 ---------------------------------------------------------------------

 SCF Done:  E(RHF) =  -279.501415114     A.U. after   14 cycles
 E2 =    -0.9452539535D+00 EUMP2 =    -0.28044666906773D+03
 E2 =    -0.9452539535D+00 EUMP2 =    -0.28044666906773D+03

 The electronic state is 1-A'.
 Alpha  occ. eigenvalues --  -20.69072 -20.68427 -20.66054 -15.81280  -1.62410
 Alpha  occ. eigenvalues --   -1.49665  -1.25419  -0.94815  -0.77351  -0.75825
 Alpha  occ. eigenvalues --   -0.71196  -0.67897  -0.62071  -0.59076  -0.48540
 Alpha  occ. eigenvalues --   -0.47252
 Alpha virt. eigenvalues --    0.02979   0.07161   0.08593   0.10167   0.13388
 Alpha virt. eigenvalues --    0.13405   0.14410   0.15461   0.17821   0.19403
 Alpha virt. eigenvalues --    0.19968   0.20640   0.22074   0.23537   0.23736

 Mulliken charges:
               1
     1  H    0.252288
     2  O   -0.201734
     3  O   -0.148329
     4  N    0.291162
     5  O   -0.193386
 Sum of Mulliken charges =  -0.00000

 Dipole moment (field-independent basis, Debye):
    X=              0.4749    Y=              1.3581    Z=              0.0000  Tot=              1.4387
 Quadrupole moment (field-independent basis, Debye-Ang):
   XX=            -22.5890   YY=            -18.6012   ZZ=            -22.0079
   XY=              3.1701   XZ=              0.0000   YZ=             -0.0000

  Exact polarizability:  33.921   9.425  30.251   0.000   0.000  17.915
 Approx polarizability:  28.998   5.068  23.535   0.000   0.000  15.515

 ******    1 imaginary frequencies (negative Signs) ******

                      1                      2                      3
                     A"                     A"                     A'
 Frequencies --   -258.0769               226.3172               338.9426
 Red. masses --      1.1214                12.3929                 8.6872
 Frc consts  --      0.0440                 0.3740                 0.5880
 IR Inten    --    124.0660                 0.0760                 5.2026

                      4                      5                      6
                     A'                     A'                     A'
 Frequencies --    452.6182               786.6558               969.2942
 Red. masses --     12.4511                12.9173                15.7050
 Frc consts  --      1.5029                 4.7097                 8.6936
 IR Inten    --    198.4214               169.8130                23.5915

                      7                      8                      9
                     A'                     A'                     A'
 Frequencies --   1380.1021              1677.6620              3778.2093
 Red. masses --      1.1304                13.0322                 1.0671
 Frc consts  --      1.2686                21.6110                 8.9753
 IR Inten    --    158.7750               138.2591                80.8104

 - Thermochemistry -
 -------------------
 Temperature   298.150 Kelvin.  Pressure   1.00000 Atm.
 Atom     1 has atomic number  1 and mass   1.00783

 Molecular mass:    62.99564 amu.
 Principal axes and moments of inertia in atomic units:
                           1         2         3
     Eigenvalues --    32.89454 359.84560 392.74014
           X            0.80932  -0.58737   0.00000
           Y            0.58737   0.80932   0.00000
           Z            0.00000  -0.00000   1.00000
 This molecule is an asymmetric top.
 Rotational symmetry number  1.
 Rotational temperatures (Kelvin)      2.63308     0.24070     0.22054
 Rotational constants (GHZ):          54.86447     5.01532     4.59526
    1 imaginary frequencies ignored.
 Zero-point vibrational energy      57479.4 (Joules/Mol)
                                   13.73790 (Kcal/Mol)
 Warning -- explicit consideration of   3 degrees of freedom as
           vibrations may cause significant error
 Vibrational temperatures:    325.62   487.66   651.22  1131.82  1394.60
          (Kelvin)           1985.66  2413.78  5436.00

 Zero-point correction=                           0.021893 (Hartree/Particle)
 Thermal correction to Energy=                    0.026015
 Thermal correction to Enthalpy=                  0.026960
 Thermal correction to Gibbs Free Energy=        -0.004237
 Sum of electronic and zero-point Energies=           -280.424776
 Sum of electronic and thermal Energies=              -280.420654
 Sum of electronic and thermal Enthalpies=            -280.419709
 Sum of electronic and thermal Free Energies=         -280.450906

                     E (Thermal)             CV                S
                      KCal/Mol        Cal/Mol-Kelvin    Cal/Mol-Kelvin
 Total                   16.325             11.953             65.660
 Electronic               0.000              0.000              0.000
 Translational            0.889              2.981             38.341
 Rotational               0.889              2.981             23.057
 Vibrational             14.547              5.992              4.262
 Vibration     1          0.650              1.801              1.908
 Vibration     2          0.719              1.598              1.217
 Vibration     3          0.811              1.355              0.788

                       ! Non-Optimized Parameters !

 1\1\GINC-N2109\Freq\RMP2-FC\Aug-CC-pVTZ\H1N1O3\CGAVINH\21-Feb-2022\1\\
 #p freq mp2/aug-cc-pvtz density=current\\title\\0,1\H\O,1,r1\O,2,r2,1,
 a1\N,3,r3,2,a2,1,d1,0\O,4,r4,3,a3,2,d2,0\\r1=0.96897556\r2=1.45491931\
 r3=1.45878406\r4=1.17072885\a1=96.15612217\a2=102.29752444\a3=109.0695
 5123\d1=180.\d2=180.\\Version=ES64L-G16RevB.01\State=1-A'\HF=-279.5014
 151\MP2=-280.4466691\RMSD=3.776e-09\RMSF=1.240e-03\ZeroPoint=0.0218927
 \Thermal=0.0260154\Dipole=-0.1479106,0.,-0.5463612\DipoleDeriv=0.27195
 83,0.,0.0535108,0.,0.3538366,0.,0.0794041,0.,0.2730583,-0.3381331,0.,-

 Normal termination of Gaussian 16 at Mon Feb 21 20:41:21 2022.
