 Gaussian 16, Revision B.01,
 Gaussian 16:  ES64L-G16RevB.01 20-Dec-2017

 ---------------------------------------
 #p freq mp2/aug-cc-pvtz density=current
 ---------------------------------------

 -----
 title
 -----
 Symbolic Z-matrix:
 Charge =  0 Multiplicity = 1

                         Standard orientation:
 ---------------------------------------------------------------------
 Center     Atomic      Atomic             Coordinates (Angstroms)
 Number     Number       Type             X           Y           Z
 ---------------------------------------------------------------------
      1          1           0        1.550810    1.691489    0.000000
      2          8           0        1.454145    0.727347    0.000000
      3          8           0       -0.000000    0.679881    0.000000
      4          7           0       -0.264038   -0.754808   -0.000000
      5          8           0       -1.416963   -0.958208   -0.000000
 ---------------------------------------------------------------------

 SCF Done:  E(RHF) =  -279.501446659     A.U. after   14 cycles
 E2 =    -0.9451519618D+00 EUMP2 =    -0.28044659862123D+03
 E2 =    -0.9451519618D+00 EUMP2 =    -0.28044659862123D+03

 The electronic state is 1-A'.
 Alpha  occ. eigenvalues --  -20.69145 -20.68477 -20.66083 -15.81235  -1.62292
 Alpha  occ. eigenvalues --   -1.49673  -1.25549  -0.94772  -0.77350  -0.75873
 Alpha  occ. eigenvalues --   -0.71154  -0.67972  -0.62098  -0.59059  -0.48586
 Alpha  occ. eigenvalues --   -0.47080
 Alpha virt. eigenvalues --    0.02952   0.07225   0.08567   0.10173   0.13403
 Alpha virt. eigenvalues --    0.13403   0.14403   0.15462   0.17811   0.19423
 Alpha virt. eigenvalues --    0.19976   0.20609   0.22081   0.23409   0.23720

 Mulliken charges:
               1
     1  H    0.250298
     2  O   -0.198674
     3  O   -0.149023
     4  N    0.290169
     5  O   -0.192769
 Sum of Mulliken charges =  -0.00000

 Dipole moment (field-independent basis, Debye):
    X=              0.5039    Y=              1.3781    Z=              0.0000  Tot=              1.4673
 Quadrupole moment (field-independent basis, Debye-Ang):
   XX=            -22.4255   YY=            -18.6247   ZZ=            -22.0172
   XY=              3.2893   XZ=              0.0000   YZ=              0.0000

  Exact polarizability:  34.036   9.598  30.460  -0.000  -0.000  17.953
 Approx polarizability:  28.967   5.281  23.664   0.000   0.000  15.534

 ******    1 imaginary frequencies (negative Signs) ******

                      1                      2                      3
                     A"                     A"                     A'
 Frequencies --   -273.6923               226.9692               340.6145
 Red. masses --      1.1443                 9.9866                 8.5692
 Frc consts  --      0.0505                 0.3031                 0.5858
 IR Inten    --    124.3402                 1.1597                 6.9477

                      4                      5                      6
                     A'                     A'                     A'
 Frequencies --    440.1638               787.1140               966.0790
 Red. masses --     12.4919                12.9040                15.2930
 Frc consts  --      1.4260                 4.7103                 8.4094
 IR Inten    --    198.9571               176.1752                25.1092

                      7                      8                      9
                     A'                     A'                     A'
 Frequencies --   1370.9614              1676.9009              3778.9364
 Red. masses --      1.1337                13.1471                 1.0676
 Frc consts  --      1.2555                21.7819                 8.9821
 IR Inten    --    155.5489               144.3979                83.6111

 - Thermochemistry -
 -------------------
 Temperature   298.150 Kelvin.  Pressure   1.00000 Atm.
 Atom     1 has atomic number  1 and mass   1.00783

 Molecular mass:    62.99564 amu.
 Principal axes and moments of inertia in atomic units:
                           1         2         3
     Eigenvalues --    32.62966 362.53176 395.16142
           X            0.80698  -0.59057   0.00000
           Y            0.59057   0.80698   0.00000
           Z            0.00000  -0.00000   1.00000
 This molecule is an asymmetric top.
 Rotational symmetry number  1.
 Rotational temperatures (Kelvin)      2.65445     0.23891     0.21919
 Rotational constants (GHZ):          55.30983     4.97816     4.56710
    1 imaginary frequencies ignored.
 Zero-point vibrational energy      57347.4 (Joules/Mol)
                                   13.70636 (Kcal/Mol)
 Warning -- explicit consideration of   3 degrees of freedom as
           vibrations may cause significant error
 Vibrational temperatures:    326.56   490.07   633.30  1132.48  1389.97
          (Kelvin)           1972.51  2412.69  5437.05

 Zero-point correction=                           0.021842 (Hartree/Particle)
 Thermal correction to Energy=                    0.025974
 Thermal correction to Enthalpy=                  0.026918
 Thermal correction to Gibbs Free Energy=        -0.004295
 Sum of electronic and zero-point Energies=           -280.424756
 Sum of electronic and thermal Energies=              -280.420625
 Sum of electronic and thermal Enthalpies=            -280.419681
 Sum of electronic and thermal Free Energies=         -280.450893

                     E (Thermal)             CV                S
                      KCal/Mol        Cal/Mol-Kelvin    Cal/Mol-Kelvin
 Total                   16.299             11.983             65.692
 Electronic               0.000              0.000              0.000
 Translational            0.889              2.981             38.341
 Rotational               0.889              2.981             23.062
 Vibrational             14.521              6.022              4.289
 Vibration     1          0.651              1.800              1.903
 Vibration     2          0.720              1.594              1.209
 Vibration     3          0.800              1.383              0.826

                       ! Non-Optimized Parameters !

 1\1\GINC-N2125\Freq\RMP2-FC\Aug-CC-pVTZ\H1N1O3\CGAVINH\21-Feb-2022\1\\
 #p freq mp2/aug-cc-pvtz density=current\\title\\0,1\H\O,1,r1\O,2,r2,1,
 a1\N,3,r3,2,a2,1,d1,0\O,4,r4,3,a3,2,d2,0\\r1=0.96897556\r2=1.45491931\
 r3=1.45878406\r4=1.17072885\a1=97.59494903\a2=102.29752444\a3=110.4331
 2234\d1=180.\d2=180.\\Version=ES64L-G16RevB.01\State=1-A'\HF=-279.5014
 467\MP2=-280.4465986\RMSD=3.858e-09\RMSF=2.536e-03\ZeroPoint=0.0218425
 \Thermal=0.0259737\Dipole=-0.1431733,0.,-0.5592507\DipoleDeriv=0.26711
 89,0.,0.0486856,0.,0.3558027,0.,0.0832605,0.,0.2776334,-0.3253531,0.,-

 Normal termination of Gaussian 16 at Mon Feb 21 20:55:02 2022.
