 Gaussian 16, Revision B.01,
 Gaussian 16:  ES64L-G16RevB.01 20-Dec-2017

 ---------------------------------------
 #p freq mp2/aug-cc-pvtz density=current
 ---------------------------------------

 -----
 title
 -----
 Symbolic Z-matrix:
 Charge =  0 Multiplicity = 1

                         Standard orientation:
 ---------------------------------------------------------------------
 Center     Atomic      Atomic             Coordinates (Angstroms)
 Number     Number       Type             X           Y           Z
 ---------------------------------------------------------------------
      1          1           0        1.506135    1.734356    0.000000
      2          8           0        1.450785    0.766962    0.000000
      3          8           0       -0.000000    0.657360    0.000000
      4          7           0       -0.257307   -0.778552   -0.000000
      5          8           0       -1.413908   -0.959884   -0.000000
 ---------------------------------------------------------------------

 SCF Done:  E(RHF) =  -279.501624169     A.U. after   14 cycles
 E2 =    -0.9449103315D+00 EUMP2 =    -0.28044653450058D+03
 E2 =    -0.9449103315D+00 EUMP2 =    -0.28044653450058D+03

 The electronic state is 1-A'.
 Alpha  occ. eigenvalues --  -20.69020 -20.68479 -20.66071 -15.81351  -1.62397
 Alpha  occ. eigenvalues --   -1.49512  -1.25541  -0.94767  -0.77115  -0.76004
 Alpha  occ. eigenvalues --   -0.71147  -0.68255  -0.62102  -0.58777  -0.48502
 Alpha  occ. eigenvalues --   -0.47206
 Alpha virt. eigenvalues --    0.02963   0.07142   0.08598   0.10230   0.13370
 Alpha virt. eigenvalues --    0.13372   0.14380   0.15377   0.17834   0.19438
 Alpha virt. eigenvalues --    0.20004   0.20595   0.22061   0.23509   0.23720

 Mulliken charges:
               1
     1  H    0.253124
     2  O   -0.205911
     3  O   -0.144040
     4  N    0.287938
     5  O   -0.191112
 Sum of Mulliken charges =  -0.00000

 Dipole moment (field-independent basis, Debye):
    X=              0.4522    Y=              1.3761    Z=              0.0000  Tot=              1.4485
 Quadrupole moment (field-independent basis, Debye-Ang):
   XX=            -22.6989   YY=            -18.3949   ZZ=            -22.0146
   XY=              3.1722   XZ=              0.0000   YZ=             -0.0000

  Exact polarizability:  33.960   9.766  30.701   0.000   0.000  17.953
 Approx polarizability:  28.974   5.382  23.673   0.000   0.000  15.531

 ******    1 imaginary frequencies (negative Signs) ******

                      1                      2                      3
                     A"                     A"                     A'
 Frequencies --   -282.8876               233.4991               333.0763
 Red. masses --      1.1411                10.6597                 8.9434
 Frc consts  --      0.0538                 0.3424                 0.5846
 IR Inten    --    124.4556                 0.7878                 2.3657

                      4                      5                      6
                     A'                     A'                     A'
 Frequencies --    436.4360               784.1452               967.9173
 Red. masses --     11.5667                12.6688                15.1984
 Frc consts  --      1.2981                 4.5896                 8.3893
 IR Inten    --    201.6389               173.3489                24.8019

                      7                      8                      9
                     A'                     A'                     A'
 Frequencies --   1371.8283              1676.0468              3778.6851
 Red. masses --      1.1368                13.2680                 1.0676
 Frc consts  --      1.2605                21.9598                 8.9816
 IR Inten    --    155.7041               140.0885                86.4583

 - Thermochemistry -
 -------------------
 Temperature   298.150 Kelvin.  Pressure   1.00000 Atm.
 Atom     1 has atomic number  1 and mass   1.00783

 Molecular mass:    62.99564 amu.
 Principal axes and moments of inertia in atomic units:
                           1         2         3
     Eigenvalues --    31.73900 365.89727 397.63627
           X            0.80030  -0.59960   0.00000
           Y            0.59960   0.80030   0.00000
           Z            0.00000  -0.00000   1.00000
 This molecule is an asymmetric top.
 Rotational symmetry number  1.
 Rotational temperatures (Kelvin)      2.72894     0.23672     0.21782
 Rotational constants (GHZ):          56.86195     4.93237     4.53867
    1 imaginary frequencies ignored.
 Zero-point vibrational energy      57310.9 (Joules/Mol)
                                   13.69763 (Kcal/Mol)
 Warning -- explicit consideration of   3 degrees of freedom as
           vibrations may cause significant error
 Vibrational temperatures:    335.95   479.22   627.93  1128.21  1392.62
          (Kelvin)           1973.76  2411.46  5436.69

 Zero-point correction=                           0.021829 (Hartree/Particle)
 Thermal correction to Energy=                    0.025963
 Thermal correction to Enthalpy=                  0.026907
 Thermal correction to Gibbs Free Energy=        -0.004299
 Sum of electronic and zero-point Energies=           -280.424706
 Sum of electronic and thermal Energies=              -280.420572
 Sum of electronic and thermal Enthalpies=            -280.419628
 Sum of electronic and thermal Free Energies=         -280.450834

                     E (Thermal)             CV                S
                      KCal/Mol        Cal/Mol-Kelvin    Cal/Mol-Kelvin
 Total                   16.292             11.999             65.678
 Electronic               0.000              0.000              0.000
 Translational            0.889              2.981             38.341
 Rotational               0.889              2.981             23.050
 Vibrational             14.514              6.037              4.288
 Vibration     1          0.654              1.790              1.852
 Vibration     2          0.715              1.609              1.245
 Vibration     3          0.797              1.391              0.838

                       ! Non-Optimized Parameters !

 1\1\GINC-N2128\Freq\RMP2-FC\Aug-CC-pVTZ\H1N1O3\CGAVINH\21-Feb-2022\1\\
 #p freq mp2/aug-cc-pvtz density=current\\title\\0,1\H\O,1,r1\O,2,r2,1,
 a1\N,3,r3,2,a2,1,d1,0\O,4,r4,3,a3,2,d2,0\\r1=0.96897556\r2=1.45491931\
 r3=1.45878406\r4=1.17072885\a1=97.59494903\a2=104.479576\a3=109.069551
 23\d1=180.\d2=180.\\Version=ES64L-G16RevB.01\State=1-A'\HF=-279.501624
 2\MP2=-280.4465345\RMSD=3.814e-09\RMSF=2.248e-03\ZeroPoint=0.0218286\T
 hermal=0.0259627\Dipole=-0.1466993,0.,-0.5506836\DipoleDeriv=0.2634908
 ,0.,0.0455537,0.,0.3556914,0.,0.0874505,0.,0.280283,-0.344399,0.,-0.21

 Normal termination of Gaussian 16 at Mon Feb 21 20:47:19 2022.
