 Gaussian 16, Revision B.01,
 Gaussian 16:  ES64L-G16RevB.01 20-Dec-2017

 ---------------------------------------
 #p freq mp2/aug-cc-pvtz density=current
 ---------------------------------------

 -----
 title
 -----
 Symbolic Z-matrix:
 Charge =  0 Multiplicity = 1

                         Standard orientation:
 ---------------------------------------------------------------------
 Center     Atomic      Atomic             Coordinates (Angstroms)
 Number     Number       Type             X           Y           Z
 ---------------------------------------------------------------------
      1          1           0        1.552917    1.667776    0.000000
      2          8           0        1.454241    0.703838   -0.000000
      3          8           0        0.000000    0.659405    0.000000
      4          7           0       -0.261628   -0.745719   -0.000000
      5          8           0       -1.419431   -0.919211    0.000000
 ---------------------------------------------------------------------

 SCF Done:  E(RHF) =  -279.504292912     A.U. after   14 cycles
 E2 =    -0.9422498390D+00 EUMP2 =    -0.28044654275122D+03
 E2 =    -0.9422498390D+00 EUMP2 =    -0.28044654275122D+03

 The electronic state is 1-A'.
 Alpha  occ. eigenvalues --  -20.69588 -20.67723 -20.66358 -15.80812  -1.62625
 Alpha  occ. eigenvalues --   -1.49967  -1.26335  -0.94600  -0.77523  -0.76284
 Alpha  occ. eigenvalues --   -0.71721  -0.67785  -0.61888  -0.59092  -0.48815
 Alpha  occ. eigenvalues --   -0.47351
 Alpha virt. eigenvalues --    0.02882   0.07550   0.08646   0.10203   0.13369
 Alpha virt. eigenvalues --    0.13408   0.14349   0.15395   0.17761   0.19420
 Alpha virt. eigenvalues --    0.19997   0.20983   0.21989   0.23410   0.23776

 Mulliken charges:
               1
     1  H    0.250485
     2  O   -0.199578
     3  O   -0.127660
     4  N    0.282858
     5  O   -0.206104
 Sum of Mulliken charges =  -0.00000

 Dipole moment (field-independent basis, Debye):
    X=              0.6435    Y=              1.5285    Z=             -0.0000  Tot=              1.6584
 Quadrupole moment (field-independent basis, Debye-Ang):
   XX=            -22.5202   YY=            -18.7399   ZZ=            -21.9677
   XY=              3.2000   XZ=              0.0000   YZ=             -0.0000

  Exact polarizability:  34.030   9.305  29.649  -0.000   0.000  17.830
 Approx polarizability:  28.876   4.917  22.885  -0.000   0.000  15.476

 ******    1 imaginary frequencies (negative Signs) ******

                      1                      2                      3
                     A"                     A"                     A'
 Frequencies --   -261.2784               216.1698               350.8661
 Red. masses --      1.1465                10.0800                 8.6692
 Frc consts  --      0.0461                 0.2775                 0.6288
 IR Inten    --    123.9423                 0.9447                 2.2954

                      4                      5                      6
                     A'                     A'                     A'
 Frequencies --    511.6907               809.1637               971.7510
 Red. masses --     12.2933                12.4683                15.2128
 Frc consts  --      1.8964                 4.8098                 8.4639
 IR Inten    --    163.5673               197.9287                26.4361

                      7                      8                      9
                     A'                     A'                     A'
 Frequencies --   1376.9871              1691.4854              3779.3207
 Red. masses --      1.1383                13.1106                 1.0675
 Frc consts  --      1.2716                22.1009                 8.9837
 IR Inten    --    158.3856               127.0174                81.9646

 - Thermochemistry -
 -------------------
 Temperature   298.150 Kelvin.  Pressure   1.00000 Atm.
 Atom     1 has atomic number  1 and mass   1.00783

 Molecular mass:    62.99564 amu.
 Principal axes and moments of inertia in atomic units:
                           1         2         3
     Eigenvalues --    32.08476 354.81790 386.90266
           X            0.81764  -0.57572   0.00000
           Y            0.57572   0.81764   0.00000
           Z            0.00000  -0.00000   1.00000
 This molecule is an asymmetric top.
 Rotational symmetry number  1.
 Rotational temperatures (Kelvin)      2.69953     0.24411     0.22386
 Rotational constants (GHZ):          56.24917     5.08639     4.66459
    1 imaginary frequencies ignored.
 Zero-point vibrational energy      58063.4 (Joules/Mol)
                                   13.87747 (Kcal/Mol)
 Warning -- explicit consideration of   3 degrees of freedom as
           vibrations may cause significant error
 Vibrational temperatures:    311.02   504.82   736.21  1164.21  1398.13
          (Kelvin)           1981.18  2433.67  5437.60

 Zero-point correction=                           0.022115 (Hartree/Particle)
 Thermal correction to Energy=                    0.026187
 Thermal correction to Enthalpy=                  0.027131
 Thermal correction to Gibbs Free Energy=        -0.003969
 Sum of electronic and zero-point Energies=           -280.424428
 Sum of electronic and thermal Energies=              -280.420356
 Sum of electronic and thermal Enthalpies=            -280.419412
 Sum of electronic and thermal Free Energies=         -280.450512

                     E (Thermal)             CV                S
                      KCal/Mol        Cal/Mol-Kelvin    Cal/Mol-Kelvin
 Total                   16.432             11.773             65.456
 Electronic               0.000              0.000              0.000
 Translational            0.889              2.981             38.341
 Rotational               0.889              2.981             23.003
 Vibrational             14.655              5.811              4.113
 Vibration     1          0.645              1.816              1.991
 Vibration     2          0.728              1.573              1.162
 Vibration     3          0.867              1.224              0.630

                       ! Non-Optimized Parameters !

 1\1\GINC-N2126\Freq\RMP2-FC\Aug-CC-pVTZ\H1N1O3\CGAVINH\21-Feb-2022\1\\
 #p freq mp2/aug-cc-pvtz density=current\\title\\0,1\H\O,1,r1\O,2,r2,1,
 a1\N,3,r3,2,a2,1,d1,0\O,4,r4,3,a3,2,d2,0\\r1=0.96897556\r2=1.45491931\
 r3=1.42927377\r4=1.17072885\a1=97.59494903\a2=102.29752444\a3=109.0695
 5123\d1=180.\d2=180.\\Version=ES64L-G16RevB.01\State=1-A'\HF=-279.5042
 929\MP2=-280.4465428\RMSD=3.425e-09\RMSF=3.509e-03\ZeroPoint=0.0221152
 \Thermal=0.0261867\Dipole=-0.1906033,0.,-0.6240169\DipoleDeriv=0.26887
 18,0.,0.051032,0.,0.3564132,0.,0.0820326,0.,0.2752281,-0.3232223,0.,-0

 Normal termination of Gaussian 16 at Mon Feb 21 20:24:58 2022.
