 Gaussian 16, Revision B.01,
 Gaussian 16:  ES64L-G16RevB.01 20-Dec-2017

 ---------------------------------------
 #p freq mp2/aug-cc-pvtz density=current
 ---------------------------------------

 -----
 title
 -----
 Symbolic Z-matrix:
 Charge =  0 Multiplicity = 1

                         Standard orientation:
 ---------------------------------------------------------------------
 Center     Atomic      Atomic             Coordinates (Angstroms)
 Number     Number       Type             X           Y           Z
 ---------------------------------------------------------------------
      1          1           0        1.535192    1.702939    0.000000
      2          8           0        1.453251    0.737435    0.000000
      3          8           0       -0.000000    0.667784    0.000000
      4          7           0       -0.260356   -0.767579    0.000000
      5          8           0       -1.417339   -0.946454    0.000000
 ---------------------------------------------------------------------

 SCF Done:  E(RHF) =  -279.501719834     A.U. after   14 cycles
 E2 =    -0.9449916966D+00 EUMP2 =    -0.28044671153063D+03
 E2 =    -0.9449916966D+00 EUMP2 =    -0.28044671153063D+03

 The electronic state is 1-A'.
 Alpha  occ. eigenvalues --  -20.69068 -20.68446 -20.66023 -15.81306  -1.62401
 Alpha  occ. eigenvalues --   -1.49554  -1.25476  -0.94793  -0.77222  -0.75948
 Alpha  occ. eigenvalues --   -0.71169  -0.68047  -0.62065  -0.58889  -0.48516
 Alpha  occ. eigenvalues --   -0.47235
 Alpha virt. eigenvalues --    0.02963   0.07159   0.08596   0.10191   0.13387
 Alpha virt. eigenvalues --    0.13388   0.14399   0.15429   0.17829   0.19425
 Alpha virt. eigenvalues --    0.19988   0.20627   0.22073   0.23534   0.23732

 Mulliken charges:
               1
     1  H    0.251260
     2  O   -0.203103
     3  O   -0.146075
     4  N    0.290488
     5  O   -0.192570
 Sum of Mulliken charges =  -0.00000

 Dipole moment (field-independent basis, Debye):
    X=              0.4899    Y=              1.3663    Z=             -0.0000  Tot=              1.4515
 Quadrupole moment (field-independent basis, Debye-Ang):
   XX=            -22.5455   YY=            -18.5420   ZZ=            -22.0118
   XY=              3.2307   XZ=              0.0000   YZ=              0.0000

  Exact polarizability:  33.992   9.569  30.396  -0.000  -0.000  17.936
 Approx polarizability:  28.999   5.197  23.567  -0.000  -0.000  15.525

 ******    1 imaginary frequencies (negative Signs) ******

                      1                      2                      3
                     A"                     A"                     A'
 Frequencies --   -274.0082               230.6265               339.1559
 Red. masses --      1.1396                10.5624                 8.6993
 Frc consts  --      0.0504                 0.3310                 0.5896
 IR Inten    --    124.6361                 0.7811                 2.4081

                      4                      5                      6
                     A'                     A'                     A'
 Frequencies --    446.0387               784.9535               967.5076
 Red. masses --     12.0961                12.8361                15.3333
 Frc consts  --      1.4179                 4.6598                 8.4566
 IR Inten    --    201.7399               171.6253                23.3657

                      7                      8                      9
                     A'                     A'                     A'
 Frequencies --   1371.4500              1676.9308              3778.7081
 Red. masses --      1.1345                13.2278                 1.0676
 Frc consts  --      1.2573                21.9163                 8.9812
 IR Inten    --    153.9316               140.2757                83.8855

 - Thermochemistry -
 -------------------
 Temperature   298.150 Kelvin.  Pressure   1.00000 Atm.
 Atom     1 has atomic number  1 and mass   1.00783

 Molecular mass:    62.99564 amu.
 Principal axes and moments of inertia in atomic units:
                           1         2         3
     Eigenvalues --    32.46762 362.08291 394.55053
           X            0.80697  -0.59059   0.00000
           Y            0.59059   0.80697   0.00000
           Z            0.00000   0.00000   1.00000
 This molecule is an asymmetric top.
 Rotational symmetry number  1.
 Rotational temperatures (Kelvin)      2.66770     0.23921     0.21953
 Rotational constants (GHZ):          55.58588     4.98433     4.57417
    1 imaginary frequencies ignored.
 Zero-point vibrational energy      57393.1 (Joules/Mol)
                                   13.71727 (Kcal/Mol)
 Warning -- explicit consideration of   3 degrees of freedom as
           vibrations may cause significant error
 Vibrational temperatures:    331.82   487.97   641.75  1129.37  1392.03
          (Kelvin)           1973.21  2412.73  5436.72

 Zero-point correction=                           0.021860 (Hartree/Particle)
 Thermal correction to Energy=                    0.025983
 Thermal correction to Enthalpy=                  0.026927
 Thermal correction to Gibbs Free Energy=        -0.004263
 Sum of electronic and zero-point Energies=           -280.424852
 Sum of electronic and thermal Energies=              -280.420729
 Sum of electronic and thermal Enthalpies=            -280.419785
 Sum of electronic and thermal Free Energies=         -280.450975

                     E (Thermal)             CV                S
                      KCal/Mol        Cal/Mol-Kelvin    Cal/Mol-Kelvin
 Total                   16.304             11.969             65.645
 Electronic               0.000              0.000              0.000
 Translational            0.889              2.981             38.341
 Rotational               0.889              2.981             23.055
 Vibrational             14.527              6.008              4.250
 Vibration     1          0.652              1.794              1.874
 Vibration     2          0.719              1.597              1.216
 Vibration     3          0.805              1.370              0.808

                       ! Non-Optimized Parameters !

 1\1\GINC-N2108\Freq\RMP2-FC\Aug-CC-pVTZ\H1N1O3\CGAVINH\21-Feb-2022\1\\
 #p freq mp2/aug-cc-pvtz density=current\\title\\0,1\H\O,1,r1\O,2,r2,1,
 a1\N,3,r3,2,a2,1,d1,0\O,4,r4,3,a3,2,d2,0\\r1=0.96897556\r2=1.45491931\
 r3=1.45878406\r4=1.17072885\a1=97.59494903\a2=103.02487496\a3=109.0695
 5123\d1=180.\d2=180.\\Version=ES64L-G16RevB.01\State=1-A'\HF=-279.5017
 198\MP2=-280.4467115\RMSD=3.797e-09\RMSF=8.056e-04\ZeroPoint=0.0218599
 \Thermal=0.0259827\Dipole=-0.1465829,0.,-0.5519339\DipoleDeriv=0.26543
 99,0.,0.0473833,0.,0.3555985,0.,0.0839347,0.,0.2772324,-0.3334948,0.,-

 Normal termination of Gaussian 16 at Mon Feb 21 20:45:57 2022.
