 Gaussian 16, Revision B.01,
 Gaussian 16:  ES64L-G16RevB.01 20-Dec-2017

 ---------------------------------------
 #p freq mp2/aug-cc-pvtz density=current
 ---------------------------------------

 -----
 title
 -----
 Symbolic Z-matrix:
 Charge =  0 Multiplicity = 1

                         Standard orientation:
 ---------------------------------------------------------------------
 Center     Atomic      Atomic             Coordinates (Angstroms)
 Number     Number       Type             X           Y           Z
 ---------------------------------------------------------------------
      1          1           0        2.248378    0.433795   -0.027293
      2          8           0        1.597846   -0.284316   -0.021111
      3          8           0        0.400615    0.541163    0.023761
      4          7           0       -0.664037   -0.456032    0.036656
      5          8           0       -1.698476    0.087956   -0.031312
 ---------------------------------------------------------------------

 SCF Done:  E(RHF) =  -279.501567687     A.U. after   15 cycles
 E2 =    -0.9449852130D+00 EUMP2 =    -0.28044655289994D+03
 E2 =    -0.9449852130D+00 EUMP2 =    -0.28044655289994D+03

 The electronic state is 1-A.
 Alpha  occ. eigenvalues --  -20.69074 -20.68439 -20.66000 -15.81277  -1.62405
 Alpha  occ. eigenvalues --   -1.49571  -1.25439  -0.94806  -0.77276  -0.75916
 Alpha  occ. eigenvalues --   -0.71209  -0.67905  -0.62056  -0.58936  -0.48522
 Alpha  occ. eigenvalues --   -0.47248
 Alpha virt. eigenvalues --    0.02963   0.07154   0.08602   0.10172   0.13229
 Alpha virt. eigenvalues --    0.13551   0.14410   0.15454   0.17806   0.19411
 Alpha virt. eigenvalues --    0.19953   0.20663   0.22091   0.23445   0.23856

 Mulliken charges:
               1
     1  H    0.250361
     2  O   -0.201550
     3  O   -0.147575
     4  N    0.291631
     5  O   -0.192867
 Sum of Mulliken charges =  -0.00000

 Dipole moment (field-independent basis, Debye):
    X=              1.2155    Y=              0.7905    Z=             -0.0100  Tot=              1.4500
 Quadrupole moment (field-independent basis, Debye-Ang):
   XX=            -17.9844   YY=            -23.0931   ZZ=            -22.0154
   XY=              2.7866   XZ=             -0.1470   YZ=              0.0573

  Exact polarizability:  41.695   0.974  22.516   0.087  -0.060  17.950
 Approx polarizability:  31.925  -1.128  20.574   0.176  -0.012  15.549

 ******    1 imaginary frequencies (negative Signs) ******

                      1                      2                      3
                      A                      A                      A
 Frequencies --   -269.7635               226.3108               341.9081
 Red. masses --      1.1384                10.5248                 8.6418
 Frc consts  --      0.0488                 0.3176                 0.5952
 IR Inten    --    124.7194                 1.6169                 4.2075

                      4                      5                      6
                      A                      A                      A
 Frequencies --    451.8875               785.7334               967.2244
 Red. masses --     12.3039                12.9106                15.3948
 Frc consts  --      1.4803                 4.6962                 8.4855
 IR Inten    --    199.2367               170.3721                22.4422

                      7                      8                      9
                      A                      A                      A
 Frequencies --   1371.1224              1677.0221              3778.6890
 Red. masses --      1.1334                13.2093                 1.0675
 Frc consts  --      1.2554                21.8881                 8.9809
 IR Inten    --    152.7222               140.2934                82.6081

 - Thermochemistry -
 -------------------
 Temperature   298.150 Kelvin.  Pressure   1.00000 Atm.
 Atom     1 has atomic number  1 and mass   1.00783

 Molecular mass:    62.99564 amu.
 Principal axes and moments of inertia in atomic units:
                           1         2         3
     Eigenvalues --    32.99885 359.95724 392.58941
           X            0.99994   0.01071  -0.00063
           Y           -0.01071   0.99994  -0.00136
           Z            0.00061   0.00136   1.00000
 This molecule is an asymmetric top.
 Rotational symmetry number  1.
 Rotational temperatures (Kelvin)      2.62476     0.24062     0.22062
 Rotational constants (GHZ):          54.69103     5.01377     4.59702
    1 imaginary frequencies ignored.
 Zero-point vibrational energy      57420.1 (Joules/Mol)
                                   13.72374 (Kcal/Mol)
 Warning -- explicit consideration of   3 degrees of freedom as
           vibrations may cause significant error
 Vibrational temperatures:    325.61   491.93   650.17  1130.50  1391.62
          (Kelvin)           1972.74  2412.86  5436.69

 Zero-point correction=                           0.021870 (Hartree/Particle)
 Thermal correction to Energy=                    0.025991
 Thermal correction to Enthalpy=                  0.026935
 Thermal correction to Gibbs Free Energy=        -0.004259
 Sum of electronic and zero-point Energies=           -280.424683
 Sum of electronic and thermal Energies=              -280.420562
 Sum of electronic and thermal Enthalpies=            -280.419618
 Sum of electronic and thermal Free Energies=         -280.450812

                     E (Thermal)             CV                S
                      KCal/Mol        Cal/Mol-Kelvin    Cal/Mol-Kelvin
 Total                   16.310             11.957             65.654
 Electronic               0.000              0.000              0.000
 Translational            0.889              2.981             38.341
 Rotational               0.889              2.981             23.060
 Vibrational             14.532              5.995              4.253
 Vibration     1          0.650              1.801              1.908
 Vibration     2          0.721              1.592              1.203
 Vibration     3          0.811              1.357              0.790

                       ! Non-Optimized Parameters !

 1\1\GINC-N2126\Freq\RMP2-FC\Aug-CC-pVTZ\H1N1O3\CGAVINH\21-Feb-2022\1\\
 #p freq mp2/aug-cc-pvtz density=current\\title\\0,1\H\O,1,r1\O,2,r2,1,
 a1\N,3,r3,2,a2,1,d1,0\O,4,r4,3,a3,2,d2,0\\r1=0.96897556\r2=1.45491931\
 r3=1.45878406\r4=1.17072885\a1=97.59494903\a2=102.29752444\a3=109.0695
 5123\d1=180.\d2=185.39581676\\Version=ES64L-G16RevB.01\State=1-A\HF=-2
 79.5015677\MP2=-280.4465529\RMSD=9.940e-09\RMSF=8.561e-04\ZeroPoint=0.
 0218702\Thermal=0.025991\Dipole=-0.1455728,-0.0039941,-0.5515664\Dipol
 eDeriv=0.2663714,-0.0008058,0.0481732,0.0018757,0.3555743,0.0023682,0.

 Normal termination of Gaussian 16 at Mon Feb 21 21:14:03 2022.
