 Gaussian 16, Revision B.01,
 Gaussian 16:  ES64L-G16RevB.01 20-Dec-2017

 ---------------------------------------
 #p freq mp2/aug-cc-pvtz density=current
 ---------------------------------------

 -----
 title
 -----
 Symbolic Z-matrix:
 Charge =  0 Multiplicity = 1

                         Standard orientation:
 ---------------------------------------------------------------------
 Center     Atomic      Atomic             Coordinates (Angstroms)
 Number     Number       Type             X           Y           Z
 ---------------------------------------------------------------------
      1          1           0        1.578339    1.682109    0.000000
      2          8           0        1.454127    0.721128    0.000000
      3          8           0       -0.000000    0.673108    0.000000
      4          7           0       -0.263492   -0.761682   -0.000000
      5          8           0       -1.420863   -0.938028   -0.000000
 ---------------------------------------------------------------------

 SCF Done:  E(RHF) =  -279.501807930     A.U. after   14 cycles
 E2 =    -0.9448328082D+00 EUMP2 =    -0.28044664073790D+03
 E2 =    -0.9448328082D+00 EUMP2 =    -0.28044664073790D+03

 The electronic state is 1-A'.
 Alpha  occ. eigenvalues --  -20.69111 -20.68435 -20.65927 -15.81290  -1.62398
 Alpha  occ. eigenvalues --   -1.49474  -1.25464  -0.94802  -0.77200  -0.76024
 Alpha  occ. eigenvalues --   -0.71163  -0.67978  -0.62016  -0.58784  -0.48502
 Alpha  occ. eigenvalues --   -0.47250
 Alpha virt. eigenvalues --    0.02945   0.07172   0.08595   0.10177   0.13379
 Alpha virt. eigenvalues --    0.13404   0.14409   0.15445   0.17831   0.19434
 Alpha virt. eigenvalues --    0.19995   0.20628   0.22088   0.23542   0.23740

 Mulliken charges:
               1
     1  H    0.248151
     2  O   -0.201686
     3  O   -0.145817
     4  N    0.292416
     5  O   -0.193065
 Sum of Mulliken charges =  -0.00000

 Dipole moment (field-independent basis, Debye):
    X=              0.5460    Y=              1.3621    Z=              0.0000  Tot=              1.4675
 Quadrupole moment (field-independent basis, Debye-Ang):
   XX=            -22.3270   YY=            -18.6379   ZZ=            -22.0132
   XY=              3.3524   XZ=              0.0000   YZ=             -0.0000

  Exact polarizability:  34.099   9.526  30.251   0.000   0.000  17.943
 Approx polarizability:  29.024   5.149  23.501   0.000   0.000  15.530

 ******    1 imaginary frequencies (negative Signs) ******

                      1                      2                      3
                     A"                     A"                     A'
 Frequencies --   -288.8867               233.4269               343.7901
 Red. masses --      1.1614                 8.8629                 8.5326
 Frc consts  --      0.0571                 0.2845                 0.5942
 IR Inten    --    125.0150                 2.1106                 3.9876

                      4                      5                      6
                     A'                     A'                     A'
 Frequencies --    450.5259               783.9181               964.4364
 Red. masses --     12.1610                12.9178                14.8439
 Frc consts  --      1.4543                 4.6772                 8.1348
 IR Inten    --    201.2801               171.7693                21.8262

                      7                      8                      9
                     A'                     A'                     A'
 Frequencies --   1360.6634              1676.9697              3779.2105
 Red. masses --      1.1382                13.3930                 1.0680
 Frc consts  --      1.2416                22.1911                 8.9871
 IR Inten    --    146.7919               142.8251                84.7304

 - Thermochemistry -
 -------------------
 Temperature   298.150 Kelvin.  Pressure   1.00000 Atm.
 Atom     1 has atomic number  1 and mass   1.00783

 Molecular mass:    62.99564 amu.
 Principal axes and moments of inertia in atomic units:
                           1         2         3
     Eigenvalues --    32.77806 360.48888 393.26694
           X            0.81113  -0.58486   0.00000
           Y            0.58486   0.81113   0.00000
           Z            0.00000  -0.00000   1.00000
 This molecule is an asymmetric top.
 Rotational symmetry number  1.
 Rotational temperatures (Kelvin)      2.64244     0.24027     0.22024
 Rotational constants (GHZ):          55.05943     5.00637     4.58910
    1 imaginary frequencies ignored.
 Zero-point vibrational energy      57378.5 (Joules/Mol)
                                   13.71380 (Kcal/Mol)
 Warning -- explicit consideration of   3 degrees of freedom as
           vibrations may cause significant error
 Vibrational temperatures:    335.85   494.64   648.21  1127.88  1387.61
          (Kelvin)           1957.69  2412.79  5437.44

 Zero-point correction=                           0.021854 (Hartree/Particle)
 Thermal correction to Energy=                    0.025965
 Thermal correction to Enthalpy=                  0.026909
 Thermal correction to Gibbs Free Energy=        -0.004256
 Sum of electronic and zero-point Energies=           -280.424786
 Sum of electronic and thermal Energies=              -280.420676
 Sum of electronic and thermal Enthalpies=            -280.419731
 Sum of electronic and thermal Free Energies=         -280.450897

                     E (Thermal)             CV                S
                      KCal/Mol        Cal/Mol-Kelvin    Cal/Mol-Kelvin
 Total                   16.293             11.955             65.594
 Electronic               0.000              0.000              0.000
 Translational            0.889              2.981             38.341
 Rotational               0.889              2.981             23.056
 Vibrational             14.516              5.994              4.197
 Vibration     1          0.654              1.790              1.852
 Vibration     2          0.723              1.588              1.195
 Vibration     3          0.809              1.360              0.794

                       ! Non-Optimized Parameters !

 1\1\GINC-N2110\Freq\RMP2-FC\Aug-CC-pVTZ\H1N1O3\CGAVINH\21-Feb-2022\1\\
 #p freq mp2/aug-cc-pvtz density=current\\title\\0,1\H\O,1,r1\O,2,r2,1,
 a1\N,3,r3,2,a2,1,d1,0\O,4,r4,3,a3,2,d2,0\\r1=0.96897556\r2=1.45491931\
 r3=1.45878406\r4=1.17072885\a1=99.25636318\a2=102.29752444\a3=109.0695
 5123\d1=180.\d2=180.\\Version=ES64L-G16RevB.01\State=1-A'\HF=-279.5018
 079\MP2=-280.4466407\RMSD=3.808e-09\RMSF=1.478e-03\ZeroPoint=0.0218543
 \Thermal=0.0259651\Dipole=-0.1443595,0.,-0.5590202\DipoleDeriv=0.26053
 93,0.,0.04221,0.,0.3575719,0.,0.0853384,0.,0.2786469,-0.3166655,0.,-0.

 Normal termination of Gaussian 16 at Mon Feb 21 20:37:19 2022.
