 Gaussian 16, Revision B.01,
 Gaussian 16:  ES64L-G16RevB.01 20-Dec-2017

 ---------------------------------------
 #p freq mp2/aug-cc-pvtz density=current
 ---------------------------------------

 -----
 title
 -----
 Symbolic Z-matrix:
 Charge =  0 Multiplicity = 1

                         Standard orientation:
 ---------------------------------------------------------------------
 Center     Atomic      Atomic             Coordinates (Angstroms)
 Number     Number       Type             X           Y           Z
 ---------------------------------------------------------------------
      1          1           0        1.529925    1.695515    0.000000
      2          8           0        1.440301    0.730693    0.000000
      3          8           0       -0.000000    0.673150    0.000000
      4          7           0       -0.253557   -0.763430   -0.000000
      5          8           0       -1.409680   -0.947781   -0.000000
 ---------------------------------------------------------------------

 SCF Done:  E(RHF) =  -279.502694790     A.U. after   14 cycles
 E2 =    -0.9439526920D+00 EUMP2 =    -0.28044664748234D+03
 E2 =    -0.9439526920D+00 EUMP2 =    -0.28044664748234D+03

 The electronic state is 1-A'.
 Alpha  occ. eigenvalues --  -20.69011 -20.68405 -20.65882 -15.81256  -1.62448
 Alpha  occ. eigenvalues --   -1.50118  -1.25199  -0.94826  -0.77425  -0.76029
 Alpha  occ. eigenvalues --   -0.71307  -0.67943  -0.62174  -0.59121  -0.48277
 Alpha  occ. eigenvalues --   -0.47218
 Alpha virt. eigenvalues --    0.02965   0.07169   0.08626   0.10177   0.13394
 Alpha virt. eigenvalues --    0.13454   0.14415   0.15459   0.17822   0.19405
 Alpha virt. eigenvalues --    0.19975   0.20648   0.22205   0.23749   0.24163

 Mulliken charges:
               1
     1  H    0.249498
     2  O   -0.200040
     3  O   -0.146314
     4  N    0.290556
     5  O   -0.193700
 Sum of Mulliken charges =  -0.00000

 Dipole moment (field-independent basis, Debye):
    X=              0.5057    Y=              1.3731    Z=              0.0000  Tot=              1.4632
 Quadrupole moment (field-independent basis, Debye-Ang):
   XX=            -22.5429   YY=            -18.5667   ZZ=            -21.9915
   XY=              3.2125   XZ=             -0.0000   YZ=              0.0000

  Exact polarizability:  33.670   9.447  30.307   0.000   0.000  17.883
 Approx polarizability:  28.621   5.114  23.551   0.000   0.000  15.500

 ******    1 imaginary frequencies (negative Signs) ******

                      1                      2                      3
                     A"                     A"                     A'
 Frequencies --   -264.4634               223.8329               338.6023
 Red. masses --      1.1365                10.7379                 8.5363
 Frc consts  --      0.0468                 0.3170                 0.5766
 IR Inten    --    125.2213                 0.6474                 6.9252

                      4                      5                      6
                     A'                     A'                     A'
 Frequencies --    455.7347               792.7330               996.3036
 Red. masses --     12.4213                12.8000                15.6801
 Frc consts  --      1.5200                 4.7393                 9.1703
 IR Inten    --    199.3574               174.2533                17.1817

                      7                      8                      9
                     A'                     A'                     A'
 Frequencies --   1386.3949              1678.0546              3777.3767
 Red. masses --      1.1346                13.0435                 1.0675
 Frc consts  --      1.2849                21.6400                 8.9739
 IR Inten    --    154.5385               139.4678                83.1591

 - Thermochemistry -
 -------------------
 Temperature   298.150 Kelvin.  Pressure   1.00000 Atm.
 Atom     1 has atomic number  1 and mass   1.00783

 Molecular mass:    62.99564 amu.
 Principal axes and moments of inertia in atomic units:
                           1         2         3
     Eigenvalues --    32.64273 357.88100 390.52373
           X            0.80519  -0.59301   0.00000
           Y            0.59301   0.80519   0.00000
           Z            0.00000  -0.00000   1.00000
 This molecule is an asymmetric top.
 Rotational symmetry number  1.
 Rotational temperatures (Kelvin)      2.65339     0.24202     0.22179
 Rotational constants (GHZ):          55.28769     5.04285     4.62134
    1 imaginary frequencies ignored.
 Zero-point vibrational energy      57714.0 (Joules/Mol)
                                   13.79398 (Kcal/Mol)
 Warning -- explicit consideration of   3 degrees of freedom as
           vibrations may cause significant error
 Vibrational temperatures:    322.05   487.17   655.70  1140.57  1433.46
          (Kelvin)           1994.71  2414.35  5434.80

 Zero-point correction=                           0.021982 (Hartree/Particle)
 Thermal correction to Energy=                    0.026100
 Thermal correction to Enthalpy=                  0.027044
 Thermal correction to Gibbs Free Energy=        -0.004142
 Sum of electronic and zero-point Energies=           -280.424665
 Sum of electronic and thermal Energies=              -280.420547
 Sum of electronic and thermal Enthalpies=            -280.419603
 Sum of electronic and thermal Free Energies=         -280.450789

                     E (Thermal)             CV                S
                      KCal/Mol        Cal/Mol-Kelvin    Cal/Mol-Kelvin
 Total                   16.378             11.908             65.637
 Electronic               0.000              0.000              0.000
 Translational            0.889              2.981             38.341
 Rotational               0.889              2.981             23.038
 Vibrational             14.601              5.946              4.258
 Vibration     1          0.649              1.805              1.928
 Vibration     2          0.719              1.598              1.219
 Vibration     3          0.814              1.348              0.779

                       ! Non-Optimized Parameters !

 1\1\GINC-N2110\Freq\RMP2-FC\Aug-CC-pVTZ\H1N1O3\CGAVINH\21-Feb-2022\1\\
 #p freq mp2/aug-cc-pvtz density=current\\title\\0,1\H\O,1,r1\O,2,r2,1,
 a1\N,3,r3,2,a2,1,d1,0\O,4,r4,3,a3,2,d2,0\\r1=0.96897556\r2=1.44145042\
 r3=1.45878406\r4=1.17072885\a1=97.59494903\a2=102.29752444\a3=109.0695
 5123\d1=180.\d2=180.\\Version=ES64L-G16RevB.01\State=1-A'\HF=-279.5026
 948\MP2=-280.4466475\RMSD=3.667e-09\RMSF=2.408e-03\ZeroPoint=0.0219821
 \Thermal=0.0261001\Dipole=-0.1481442,0.,-0.5562874\DipoleDeriv=0.26683
 67,0.,0.0490668,0.,0.3561358,0.,0.0800372,0.,0.2772624,-0.3291828,0.,-

 Normal termination of Gaussian 16 at Mon Feb 21 20:15:20 2022.
