 Gaussian 16, Revision B.01,
 Gaussian 16:  ES64L-G16RevB.01 20-Dec-2017

 ---------------------------------------
 #p freq mp2/aug-cc-pvtz density=current
 ---------------------------------------

 -----
 title
 -----
 Symbolic Z-matrix:
 Charge =  0 Multiplicity = 1

                         Standard orientation:
 ---------------------------------------------------------------------
 Center     Atomic      Atomic             Coordinates (Angstroms)
 Number     Number       Type             X           Y           Z
 ---------------------------------------------------------------------
      1          1           0        1.570514    1.677741   -0.000000
      2          8           0        1.469401    0.714055   -0.000000
      3          8           0        0.000000    0.672877    0.000000
      4          7           0       -0.270655   -0.760579    0.000000
      5          8           0       -1.428892   -0.931143    0.000000
 ---------------------------------------------------------------------

 SCF Done:  E(RHF) =  -279.500329932     A.U. after   14 cycles
 E2 =    -0.9462871756D+00 EUMP2 =    -0.28044661710759D+03
 E2 =    -0.9462871756D+00 EUMP2 =    -0.28044661710759D+03

 The electronic state is 1-A'.
 Alpha  occ. eigenvalues --  -20.69173 -20.68455 -20.66127 -15.81313  -1.62362
 Alpha  occ. eigenvalues --   -1.48985  -1.25707  -0.94786  -0.77124  -0.75799
 Alpha  occ. eigenvalues --   -0.71048  -0.67937  -0.61902  -0.58731  -0.48789
 Alpha  occ. eigenvalues --   -0.47283
 Alpha virt. eigenvalues --    0.02960   0.07165   0.08555   0.10165   0.13316
 Alpha virt. eigenvalues --    0.13397   0.14400   0.15447   0.17829   0.19431
 Alpha virt. eigenvalues --    0.19987   0.20618   0.21791   0.23018   0.23726

 Mulliken charges:
               1
     1  H    0.251119
     2  O   -0.203397
     3  O   -0.147913
     4  N    0.292956
     5  O   -0.192765
 Sum of Mulliken charges =  -0.00000

 Dipole moment (field-independent basis, Debye):
    X=              0.5110    Y=              1.3474    Z=             -0.0000  Tot=              1.4411
 Quadrupole moment (field-independent basis, Debye-Ang):
   XX=            -22.3862   YY=            -18.6711   ZZ=            -22.0312
   XY=              3.3029   XZ=              0.0000   YZ=             -0.0000

  Exact polarizability:  34.369   9.495  30.192  -0.000   0.000  17.978
 Approx polarizability:  29.454   5.094  23.487  -0.000  -0.000  15.546

 ******    1 imaginary frequencies (negative Signs) ******

                      1                      2                      3
                     A"                     A"                     A'
 Frequencies --   -274.9046               233.8376               343.2538
 Red. masses --      1.1411                10.3233                 8.7125
 Frc consts  --      0.0508                 0.3326                 0.6048
 IR Inten    --    124.2001                 0.9026                 2.7946

                      4                      5                      6
                     A'                     A'                     A'
 Frequencies --    447.2495               774.9244               938.1152
 Red. masses --     12.1773                13.1498                14.9112
 Frc consts  --      1.4352                 4.6525                 7.7317
 IR Inten    --    199.1056               163.8220                32.0510

                      7                      8                      9
                     A'                     A'                     A'
 Frequencies --   1354.3586              1676.5746              3780.1229
 Red. masses --      1.1325                13.3705                 1.0676
 Frc consts  --      1.2240                22.1434                 8.9885
 IR Inten    --    151.5234               141.3984                81.7853

 - Thermochemistry -
 -------------------
 Temperature   298.150 Kelvin.  Pressure   1.00000 Atm.
 Atom     1 has atomic number  1 and mass   1.00783

 Molecular mass:    62.99564 amu.
 Principal axes and moments of inertia in atomic units:
                           1         2         3
     Eigenvalues --    33.06118 362.69875 395.75993
           X            0.81563  -0.57858   0.00000
           Y            0.57858   0.81563   0.00000
           Z           -0.00000   0.00000   1.00000
 This molecule is an asymmetric top.
 Rotational symmetry number  1.
 Rotational temperatures (Kelvin)      2.61981     0.23880     0.21885
 Rotational constants (GHZ):          54.58793     4.97587     4.56019
    1 imaginary frequencies ignored.
 Zero-point vibrational energy      57112.3 (Joules/Mol)
                                   13.65018 (Kcal/Mol)
 Warning -- explicit consideration of   3 degrees of freedom as
           vibrations may cause significant error
 Vibrational temperatures:    336.44   493.87   643.49  1114.94  1349.74
          (Kelvin)           1948.62  2412.22  5438.75

 Zero-point correction=                           0.021753 (Hartree/Particle)
 Thermal correction to Energy=                    0.025874
 Thermal correction to Enthalpy=                  0.026818
 Thermal correction to Gibbs Free Energy=        -0.004371
 Sum of electronic and zero-point Energies=           -280.424864
 Sum of electronic and thermal Energies=              -280.420743
 Sum of electronic and thermal Enthalpies=            -280.419799
 Sum of electronic and thermal Free Energies=         -280.450989

                     E (Thermal)             CV                S
                      KCal/Mol        Cal/Mol-Kelvin    Cal/Mol-Kelvin
 Total                   16.236             12.013             65.644
 Electronic               0.000              0.000              0.000
 Translational            0.889              2.981             38.341
 Rotational               0.889              2.981             23.077
 Vibrational             14.459              6.051              4.226
 Vibration     1          0.654              1.789              1.849
 Vibration     2          0.722              1.589              1.197
 Vibration     3          0.806              1.367              0.804

                       ! Non-Optimized Parameters !

 1\1\GINC-N2124\Freq\RMP2-FC\Aug-CC-pVTZ\H1N1O3\CGAVINH\21-Feb-2022\1\\
 #p freq mp2/aug-cc-pvtz density=current\\title\\0,1\H\O,1,r1\O,2,r2,1,
 a1\N,3,r3,2,a2,1,d1,0\O,4,r4,3,a3,2,d2,0\\r1=0.96897556\r2=1.46997798\
 r3=1.45878406\r4=1.17072885\a1=97.59494903\a2=102.29752444\a3=109.0695
 5123\d1=180.\d2=180.\\Version=ES64L-G16RevB.01\State=1-A'\HF=-279.5003
 299\MP2=-280.4466171\RMSD=3.942e-09\RMSF=2.626e-03\ZeroPoint=0.0217529
 \Thermal=0.025874\Dipole=-0.1446336,0.,-0.5481992\DipoleDeriv=0.266044
 ,0.,0.0474174,0.,0.3549081,0.,0.084264,0.,0.273602,-0.3277651,0.,-0.20

 Normal termination of Gaussian 16 at Mon Feb 21 20:11:25 2022.
