 Gaussian 16, Revision B.01,
 Gaussian 16:  ES64L-G16RevB.01 20-Dec-2017

 ---------------------------------------
 #p freq mp2/aug-cc-pvtz density=current
 ---------------------------------------

 -----
 title
 -----
 Symbolic Z-matrix:
 Charge =  0 Multiplicity = 1

                         Standard orientation:
 ---------------------------------------------------------------------
 Center     Atomic      Atomic             Coordinates (Angstroms)
 Number     Number       Type             X           Y           Z
 ---------------------------------------------------------------------
      1          1           0        1.590411    1.679745    0.000000
      2          8           0        1.454152    0.720398    0.000000
      3          8           0       -0.000000    0.673157    0.000000
      4          7           0       -0.264260   -0.761492   -0.000000
      5          8           0       -1.421726   -0.937218   -0.000000
 ---------------------------------------------------------------------

 SCF Done:  E(RHF) =  -279.501797510     A.U. after   14 cycles
 E2 =    -0.9447518781D+00 EUMP2 =    -0.28044654938848D+03
 E2 =    -0.9447518781D+00 EUMP2 =    -0.28044654938848D+03

 The electronic state is 1-A'.
 Alpha  occ. eigenvalues --  -20.69121 -20.68438 -20.65896 -15.81293  -1.62397
 Alpha  occ. eigenvalues --   -1.49433  -1.25473  -0.94801  -0.77170  -0.76068
 Alpha  occ. eigenvalues --   -0.71157  -0.67993  -0.62004  -0.58717  -0.48493
 Alpha  occ. eigenvalues --   -0.47250
 Alpha virt. eigenvalues --    0.02938   0.07174   0.08595   0.10180   0.13371
 Alpha virt. eigenvalues --    0.13407   0.14411   0.15441   0.17833   0.19440
 Alpha virt. eigenvalues --    0.20001   0.20624   0.22090   0.23539   0.23740

 Mulliken charges:
               1
     1  H    0.247346
     2  O   -0.201801
     3  O   -0.145263
     4  N    0.292694
     5  O   -0.192976
 Sum of Mulliken charges =  -0.00000

 Dipole moment (field-independent basis, Debye):
    X=              0.5614    Y=              1.3622    Z=              0.0000  Tot=              1.4733
 Quadrupole moment (field-independent basis, Debye-Ang):
   XX=            -22.2672   YY=            -18.6488   ZZ=            -22.0144
   XY=              3.3914   XZ=              0.0000   YZ=             -0.0000

  Exact polarizability:  34.141   9.549  30.250   0.000   0.000  17.949
 Approx polarizability:  29.033   5.168  23.493   0.000   0.000  15.534

 ******    1 imaginary frequencies (negative Signs) ******

                      1                      2                      3
                     A"                     A"                     A'
 Frequencies --   -298.6907               235.4868               344.7201
 Red. masses --      1.1703                 8.3530                 8.4998
 Frc consts  --      0.0615                 0.2729                 0.5951
 IR Inten    --    125.0995                 2.7110                 3.7621

                      4                      5                      6
                     A'                     A'                     A'
 Frequencies --    450.0508               783.2966               963.1172
 Red. masses --     12.0973                12.9166                14.5655
 Frc consts  --      1.4437                 4.6693                 7.9604
 IR Inten    --    201.9291               172.1470                21.5776

                      7                      8                      9
                     A'                     A'                     A'
 Frequencies --   1356.1634              1676.8193              3779.4013
 Red. masses --      1.1407                13.4639                 1.0682
 Frc consts  --      1.2360                22.3045                 8.9895
 IR Inten    --    144.3256               143.7474                85.7029

 - Thermochemistry -
 -------------------
 Temperature   298.150 Kelvin.  Pressure   1.00000 Atm.
 Atom     1 has atomic number  1 and mass   1.00783

 Molecular mass:    62.99564 amu.
 Principal axes and moments of inertia in atomic units:
                           1         2         3
     Eigenvalues --    32.75243 360.62889 393.38131
           X            0.81154  -0.58430   0.00000
           Y            0.58430   0.81154   0.00000
           Z            0.00000  -0.00000   1.00000
 This molecule is an asymmetric top.
 Rotational symmetry number  1.
 Rotational temperatures (Kelvin)      2.64450     0.24017     0.22018
 Rotational constants (GHZ):          55.10252     5.00443     4.58777
    1 imaginary frequencies ignored.
 Zero-point vibrational energy      57355.3 (Joules/Mol)
                                   13.70824 (Kcal/Mol)
 Warning -- explicit consideration of   3 degrees of freedom as
           vibrations may cause significant error
 Vibrational temperatures:    338.81   495.98   647.52  1126.99  1385.71
          (Kelvin)           1951.22  2412.57  5437.72

 Zero-point correction=                           0.021845 (Hartree/Particle)
 Thermal correction to Energy=                    0.025953
 Thermal correction to Enthalpy=                  0.026897
 Thermal correction to Gibbs Free Energy=        -0.004260
 Sum of electronic and zero-point Energies=           -280.424704
 Sum of electronic and thermal Energies=              -280.420596
 Sum of electronic and thermal Enthalpies=            -280.419652
 Sum of electronic and thermal Free Energies=         -280.450809

                     E (Thermal)             CV                S
                      KCal/Mol        Cal/Mol-Kelvin    Cal/Mol-Kelvin
 Total                   16.286             11.956             65.576
 Electronic               0.000              0.000              0.000
 Translational            0.889              2.981             38.341
 Rotational               0.889              2.981             23.056
 Vibrational             14.508              5.994              4.180
 Vibration     1          0.655              1.786              1.837
 Vibration     2          0.723              1.586              1.190
 Vibration     3          0.809              1.361              0.796

                       ! Non-Optimized Parameters !

 1\1\GINC-N2126\Freq\RMP2-FC\Aug-CC-pVTZ\H1N1O3\CGAVINH\21-Feb-2022\1\\
 #p freq mp2/aug-cc-pvtz density=current\\title\\0,1\H\O,1,r1\O,2,r2,1,
 a1\N,3,r3,2,a2,1,d1,0\O,4,r4,3,a3,2,d2,0\\r1=0.96897556\r2=1.45491931\
 r3=1.45878406\r4=1.17072885\a1=99.94454346\a2=102.29752444\a3=109.0695
 5123\d1=180.\d2=180.\\Version=ES64L-G16RevB.01\State=1-A'\HF=-279.5017
 975\MP2=-280.4465494\RMSD=3.816e-09\RMSF=2.074e-03\ZeroPoint=0.0218455
 \Thermal=0.0259532\Dipole=-0.1433347,0.,-0.5616486\DipoleDeriv=0.25831
 1,0.,0.0396783,0.,0.3584195,0.,0.0866766,0.,0.279973,-0.3120001,0.,-0.

 Normal termination of Gaussian 16 at Mon Feb 21 20:38:07 2022.
