 Gaussian 16, Revision B.01,
 Gaussian 16:  ES64L-G16RevB.01 20-Dec-2017

 ---------------------------------------
 #p freq mp2/aug-cc-pvtz density=current
 ---------------------------------------

 -----
 title
 -----
 Symbolic Z-matrix:
 Charge =  0 Multiplicity = 1

                         Standard orientation:
 ---------------------------------------------------------------------
 Center     Atomic      Atomic             Coordinates (Angstroms)
 Number     Number       Type             X           Y           Z
 ---------------------------------------------------------------------
      1          1           0       -2.248441    0.433909   -0.025528
      2          8           0       -1.597971   -0.284261   -0.019753
      3          8           0       -0.400582    0.541140    0.022234
      4          7           0        0.663991   -0.456150    0.034286
      5          8           0        1.698616    0.088014   -0.029290
 ---------------------------------------------------------------------

 SCF Done:  E(RHF) =  -279.501582676     A.U. after   15 cycles
 E2 =    -0.9449929127D+00 EUMP2 =    -0.28044657558898D+03
 E2 =    -0.9449929127D+00 EUMP2 =    -0.28044657558898D+03

 The electronic state is 1-A.
 Alpha  occ. eigenvalues --  -20.69075 -20.68438 -20.65999 -15.81278  -1.62405
 Alpha  occ. eigenvalues --   -1.49571  -1.25439  -0.94806  -0.77276  -0.75916
 Alpha  occ. eigenvalues --   -0.71205  -0.67909  -0.62054  -0.58936  -0.48522
 Alpha  occ. eigenvalues --   -0.47249
 Alpha virt. eigenvalues --    0.02963   0.07156   0.08601   0.10172   0.13240
 Alpha virt. eigenvalues --    0.13541   0.14410   0.15454   0.17809   0.19412
 Alpha virt. eigenvalues --    0.19956   0.20660   0.22090   0.23454   0.23845

 Mulliken charges:
               1
     1  H    0.250349
     2  O   -0.201555
     3  O   -0.147524
     4  N    0.291645
     5  O   -0.192915
 Sum of Mulliken charges =  -0.00000

 Dipole moment (field-independent basis, Debye):
    X=             -1.2158    Y=              0.7906    Z=             -0.0093  Tot=              1.4503
 Quadrupole moment (field-independent basis, Debye-Ang):
   XX=            -17.9853   YY=            -23.0931   ZZ=            -22.0148
   XY=             -2.7875   XZ=              0.1375   YZ=              0.0536

  Exact polarizability:  41.700  -0.974  22.516  -0.082  -0.057  17.947
 Approx polarizability:  31.928   1.128  20.574  -0.165  -0.012  15.545

 ******    1 imaginary frequencies (negative Signs) ******

                      1                      2                      3
                      A                      A                      A
 Frequencies --   -269.6987               226.6485               341.8373
 Red. masses --      1.1385                10.5242                 8.6384
 Frc consts  --      0.0488                 0.3185                 0.5947
 IR Inten    --    124.7208                 1.5140                 4.2543

                      4                      5                      6
                      A                      A                      A
 Frequencies --    451.8585               785.6912               967.2297
 Red. masses --     12.3054                12.9116                15.3947
 Frc consts  --      1.4803                 4.6961                 8.4856
 IR Inten    --    199.2989               170.4214                22.4668

                      7                      8                      9
                      A                      A                      A
 Frequencies --   1371.1381              1677.0615              3778.6906
 Red. masses --      1.1334                13.2092                 1.0675
 Frc consts  --      1.2554                21.8889                 8.9809
 IR Inten    --    152.7605               140.3149                82.5997

 - Thermochemistry -
 -------------------
 Temperature   298.150 Kelvin.  Pressure   1.00000 Atm.
 Atom     1 has atomic number  1 and mass   1.00783

 Molecular mass:    62.99564 amu.
 Principal axes and moments of inertia in atomic units:
                           1         2         3
     Eigenvalues --    32.97905 359.98090 392.63906
           X            0.99994  -0.01071   0.00058
           Y            0.01071   0.99994  -0.00127
           Z           -0.00057   0.00127   1.00000
 This molecule is an asymmetric top.
 Rotational symmetry number  1.
 Rotational temperatures (Kelvin)      2.62633     0.24061     0.22059
 Rotational constants (GHZ):          54.72386     5.01344     4.59644
    1 imaginary frequencies ignored.
 Zero-point vibrational energy      57421.7 (Joules/Mol)
                                   13.72411 (Kcal/Mol)
 Warning -- explicit consideration of   3 degrees of freedom as
           vibrations may cause significant error
 Vibrational temperatures:    326.10   491.83   650.12  1130.43  1391.63
          (Kelvin)           1972.76  2412.92  5436.69

 Zero-point correction=                           0.021871 (Hartree/Particle)
 Thermal correction to Energy=                    0.025991
 Thermal correction to Enthalpy=                  0.026935
 Thermal correction to Gibbs Free Energy=        -0.004257
 Sum of electronic and zero-point Energies=           -280.424705
 Sum of electronic and thermal Energies=              -280.420584
 Sum of electronic and thermal Enthalpies=            -280.419640
 Sum of electronic and thermal Free Energies=         -280.450833

                     E (Thermal)             CV                S
                      KCal/Mol        Cal/Mol-Kelvin    Cal/Mol-Kelvin
 Total                   16.310             11.956             65.651
 Electronic               0.000              0.000              0.000
 Translational            0.889              2.981             38.341
 Rotational               0.889              2.981             23.059
 Vibrational             14.532              5.995              4.251
 Vibration     1          0.650              1.800              1.905
 Vibration     2          0.721              1.592              1.204
 Vibration     3          0.811              1.357              0.790

                       ! Non-Optimized Parameters !

 1\1\GINC-N2127\Freq\RMP2-FC\Aug-CC-pVTZ\H1N1O3\CGAVINH\21-Feb-2022\1\\
 #p freq mp2/aug-cc-pvtz density=current\\title\\0,1\H\O,1,r1\O,2,r2,1,
 a1\N,3,r3,2,a2,1,d1,0\O,4,r4,3,a3,2,d2,0\\r1=0.96897556\r2=1.45491931\
 r3=1.45878406\r4=1.17072885\a1=97.59494903\a2=102.29752444\a3=109.0695
 5123\d1=180.\d2=174.95267559\\Version=ES64L-G16RevB.01\State=1-A\HF=-2
 79.5015827\MP2=-280.4465756\RMSD=9.334e-09\RMSF=8.029e-04\ZeroPoint=0.
 0218708\Thermal=0.0259912\Dipole=-0.1456869,0.0037432,-0.5516704\Dipol
 eDeriv=0.266371,0.0007537,0.0481878,-0.0017556,0.3555717,-0.0022161,0.

 Normal termination of Gaussian 16 at Mon Feb 21 21:18:45 2022.
