 Gaussian 16, Revision B.01,
 Gaussian 16:  ES64L-G16RevB.01 20-Dec-2017

 ---------------------------------------
 #p freq mp2/aug-cc-pvtz density=current
 ---------------------------------------

 -----
 title
 -----
 Symbolic Z-matrix:
 Charge =  0 Multiplicity = 1

                         Standard orientation:
 ---------------------------------------------------------------------
 Center     Atomic      Atomic             Coordinates (Angstroms)
 Number     Number       Type             X           Y           Z
 ---------------------------------------------------------------------
      1          1           0        1.549780    1.689003    0.000000
      2          8           0        1.454096    0.724763    0.000000
      3          8           0        0.000000    0.675818    0.000000
      4          7           0       -0.262579   -0.759140   -0.000000
      5          8           0       -1.418062   -0.947458   -0.000000
 ---------------------------------------------------------------------

 SCF Done:  E(RHF) =  -279.501625181     A.U. after   14 cycles
 E2 =    -0.9450864340D+00 EUMP2 =    -0.28044671161507D+03
 E2 =    -0.9450864340D+00 EUMP2 =    -0.28044671161507D+03

 The electronic state is 1-A'.
 Alpha  occ. eigenvalues --  -20.69112 -20.68449 -20.66033 -15.81264  -1.62357
 Alpha  occ. eigenvalues --   -1.49615  -1.25486  -0.94792  -0.77308  -0.75900
 Alpha  occ. eigenvalues --   -0.71169  -0.67952  -0.62067  -0.58991  -0.48549
 Alpha  occ. eigenvalues --   -0.47182
 Alpha virt. eigenvalues --    0.02958   0.07191   0.08584   0.10173   0.13398
 Alpha virt. eigenvalues --    0.13399   0.14406   0.15457   0.17820   0.19420
 Alpha virt. eigenvalues --    0.19979   0.20626   0.22082   0.23488   0.23731

 Mulliken charges:
               1
     1  H    0.250283
     2  O   -0.200390
     3  O   -0.147938
     4  N    0.291100
     5  O   -0.193055
 Sum of Mulliken charges =  -0.00000

 Dipole moment (field-independent basis, Debye):
    X=              0.5066    Y=              1.3680    Z=              0.0000  Tot=              1.4588
 Quadrupole moment (field-independent basis, Debye-Ang):
   XX=            -22.4512   YY=            -18.6194   ZZ=            -22.0132
   XY=              3.2697   XZ=             -0.0000   YZ=              0.0000

  Exact polarizability:  34.015   9.523  30.337   0.000  -0.000  17.938
 Approx polarizability:  28.991   5.177  23.578   0.000   0.000  15.527

 ******    1 imaginary frequencies (negative Signs) ******

                      1                      2                      3
                     A"                     A"                     A'
 Frequencies --   -271.0405               228.3662               341.0943
 Red. masses --      1.1410                10.3027                 8.5960
 Frc consts  --      0.0494                 0.3166                 0.5892
 IR Inten    --    124.5837                 0.9208                 5.4158

                      4                      5                      6
                     A'                     A'                     A'
 Frequencies --    447.0049               786.1244               966.7712
 Red. masses --     12.3873                12.9110                15.3544
 Frc consts  --      1.4583                 4.7010                 8.4554
 IR Inten    --    199.4764               173.0998                23.6120

                      7                      8                      9
                     A'                     A'                     A'
 Frequencies --   1371.1442              1677.1719              3778.7987
 Red. masses --      1.1335                13.1836                 1.0675
 Frc consts  --      1.2556                21.8494                 8.9814
 IR Inten    --    154.0658               142.0724                82.9808

 - Thermochemistry -
 -------------------
 Temperature   298.150 Kelvin.  Pressure   1.00000 Atm.
 Atom     1 has atomic number  1 and mass   1.00783

 Molecular mass:    62.99564 amu.
 Principal axes and moments of inertia in atomic units:
                           1         2         3
     Eigenvalues --    32.75221 361.12841 393.88062
           X            0.80885  -0.58801   0.00000
           Y            0.58801   0.80885   0.00000
           Z            0.00000  -0.00000   1.00000
 This molecule is an asymmetric top.
 Rotational symmetry number  1.
 Rotational temperatures (Kelvin)      2.64452     0.23984     0.21990
 Rotational constants (GHZ):          55.10288     4.99751     4.58195
    1 imaginary frequencies ignored.
 Zero-point vibrational energy      57399.7 (Joules/Mol)
                                   13.71885 (Kcal/Mol)
 Warning -- explicit consideration of   3 degrees of freedom as
           vibrations may cause significant error
 Vibrational temperatures:    328.57   490.76   643.14  1131.06  1390.97
          (Kelvin)           1972.77  2413.08  5436.85

 Zero-point correction=                           0.021862 (Hartree/Particle)
 Thermal correction to Energy=                    0.025985
 Thermal correction to Enthalpy=                  0.026929
 Thermal correction to Gibbs Free Energy=        -0.004265
 Sum of electronic and zero-point Energies=           -280.424849
 Sum of electronic and thermal Energies=              -280.420726
 Sum of electronic and thermal Enthalpies=            -280.419782
 Sum of electronic and thermal Free Energies=         -280.450977

                     E (Thermal)             CV                S
                      KCal/Mol        Cal/Mol-Kelvin    Cal/Mol-Kelvin
 Total                   16.306             11.966             65.655
 Electronic               0.000              0.000              0.000
 Translational            0.889              2.981             38.341
 Rotational               0.889              2.981             23.059
 Vibrational             14.529              6.004              4.255
 Vibration     1          0.651              1.798              1.892
 Vibration     2          0.721              1.593              1.207
 Vibration     3          0.806              1.368              0.805

                       ! Non-Optimized Parameters !

 1\1\GINC-N2108\Freq\RMP2-FC\Aug-CC-pVTZ\H1N1O3\CGAVINH\21-Feb-2022\1\\
 #p freq mp2/aug-cc-pvtz density=current\\title\\0,1\H\O,1,r1\O,2,r2,1,
 a1\N,3,r3,2,a2,1,d1,0\O,4,r4,3,a3,2,d2,0\\r1=0.96897556\r2=1.45491931\
 r3=1.45878406\r4=1.17072885\a1=97.59494903\a2=102.29752444\a3=109.6262
 268\d1=180.\d2=180.\\Version=ES64L-G16RevB.01\State=1-A'\HF=-279.50162
 52\MP2=-280.4467116\RMSD=3.817e-09\RMSF=1.046e-03\ZeroPoint=0.0218624\
 Thermal=0.0259852\Dipole=-0.1451968,0.,-0.5552505\DipoleDeriv=0.266681
 7,0.,0.0484524,0.,0.3556579,0.,0.0826043,0.,0.2764262,-0.3269071,0.,-0

 Normal termination of Gaussian 16 at Mon Feb 21 20:54:49 2022.
