 Gaussian 16, Revision B.01,
 Gaussian 16:  ES64L-G16RevB.01 20-Dec-2017

 ---------------------------------------
 #p freq mp2/aug-cc-pvtz density=current
 ---------------------------------------

 -----
 title
 -----
 Symbolic Z-matrix:
 Charge =  0 Multiplicity = 1

                         Standard orientation:
 ---------------------------------------------------------------------
 Center     Atomic      Atomic             Coordinates (Angstroms)
 Number     Number       Type             X           Y           Z
 ---------------------------------------------------------------------
      1          1           0        1.547634    1.689620    0.000000
      2          8           0        1.453989    0.725180    0.000000
      3          8           0       -0.000000    0.673160   -0.000000
      4          7           0       -0.259544   -0.762349   -0.000000
      5          8           0       -1.420342   -0.942487   -0.000000
 ---------------------------------------------------------------------

 SCF Done:  E(RHF) =  -279.500988482     A.U. after   14 cycles
 E2 =    -0.9457265895D+00 EUMP2 =    -0.28044671507165D+03
 E2 =    -0.9457265895D+00 EUMP2 =    -0.28044671507165D+03

 The electronic state is 1-A'.
 Alpha  occ. eigenvalues --  -20.69181 -20.68413 -20.66049 -15.81341  -1.62086
 Alpha  occ. eigenvalues --   -1.49567  -1.25481  -0.94861  -0.77234  -0.75814
 Alpha  occ. eigenvalues --   -0.71102  -0.67889  -0.61964  -0.58968  -0.48555
 Alpha  occ. eigenvalues --   -0.47327
 Alpha virt. eigenvalues --    0.02952   0.07045   0.08601   0.10172   0.13390
 Alpha virt. eigenvalues --    0.13403   0.14399   0.15444   0.17819   0.19422
 Alpha virt. eigenvalues --    0.19966   0.20636   0.22068   0.23509   0.23735

 Mulliken charges:
               1
     1  H    0.250397
     2  O   -0.201271
     3  O   -0.146292
     4  N    0.291308
     5  O   -0.194142
 Sum of Mulliken charges =  -0.00000

 Dipole moment (field-independent basis, Debye):
    X=              0.5231    Y=              1.3782    Z=              0.0000  Tot=              1.4741
 Quadrupole moment (field-independent basis, Debye-Ang):
   XX=            -22.4896   YY=            -18.6158   ZZ=            -22.0169
   XY=              3.2428   XZ=             -0.0000   YZ=              0.0000

  Exact polarizability:  34.043   9.515  30.306   0.000   0.000  17.935
 Approx polarizability:  29.095   5.137  23.555   0.000   0.000  15.539

 ******    1 imaginary frequencies (negative Signs) ******

                      1                      2                      3
                     A"                     A"                     A'
 Frequencies --   -269.8833               241.6923               344.2921
 Red. masses --      1.1353                10.8395                 8.5672
 Frc consts  --      0.0487                 0.3731                 0.5983
 IR Inten    --    124.9292                 0.5855                 5.6840

                      4                      5                      6
                     A'                     A'                     A'
 Frequencies --    449.5471               785.5030               966.8062
 Red. masses --     12.3730                13.0054                15.3937
 Frc consts  --      1.4732                 4.7279                 8.4776
 IR Inten    --    198.9390               170.6856                23.1332

                      7                      8                      9
                     A'                     A'                     A'
 Frequencies --   1370.8362              1652.1766              3778.7386
 Red. masses --      1.1358                12.8424                 1.0675
 Frc consts  --      1.2575                20.6543                 8.9811
 IR Inten    --    155.3524               130.5190                82.8413

 - Thermochemistry -
 -------------------
 Temperature   298.150 Kelvin.  Pressure   1.00000 Atm.
 Atom     1 has atomic number  1 and mass   1.00783

 Molecular mass:    62.99564 amu.
 Principal axes and moments of inertia in atomic units:
                           1         2         3
     Eigenvalues --    32.85637 360.81812 393.67449
           X            0.80964  -0.58693   0.00000
           Y            0.58693   0.80964   0.00000
           Z           -0.00000   0.00000   1.00000
 This molecule is an asymmetric top.
 Rotational symmetry number  1.
 Rotational temperatures (Kelvin)      2.63614     0.24005     0.22001
 Rotational constants (GHZ):          54.92819     5.00180     4.58435
    1 imaginary frequencies ignored.
 Zero-point vibrational energy      57358.5 (Joules/Mol)
                                   13.70901 (Kcal/Mol)
 Warning -- explicit consideration of   3 degrees of freedom as
           vibrations may cause significant error
 Vibrational temperatures:    347.74   495.36   646.80  1130.16  1391.02
          (Kelvin)           1972.33  2377.11  5436.76

 Zero-point correction=                           0.021847 (Hartree/Particle)
 Thermal correction to Energy=                    0.025945
 Thermal correction to Enthalpy=                  0.026889
 Thermal correction to Gibbs Free Energy=        -0.004248
 Sum of electronic and zero-point Energies=           -280.424868
 Sum of electronic and thermal Energies=              -280.420770
 Sum of electronic and thermal Enthalpies=            -280.419826
 Sum of electronic and thermal Free Energies=         -280.450963

                     E (Thermal)             CV                S
                      KCal/Mol        Cal/Mol-Kelvin    Cal/Mol-Kelvin
 Total                   16.281             11.937             65.534
 Electronic               0.000              0.000              0.000
 Translational            0.889              2.981             38.341
 Rotational               0.889              2.981             23.061
 Vibrational             14.503              5.976              4.133
 Vibration     1          0.658              1.776              1.790
 Vibration     2          0.723              1.587              1.192
 Vibration     3          0.808              1.362              0.797

                       ! Non-Optimized Parameters !

 1\1\GINC-N2108\Freq\RMP2-FC\Aug-CC-pVTZ\H1N1O3\CGAVINH\21-Feb-2022\1\\
 #p freq mp2/aug-cc-pvtz density=current\\title\\0,1\H\O,1,r1\O,2,r2,1,
 a1\N,3,r3,2,a2,1,d1,0\O,4,r4,3,a3,2,d2,0\\r1=0.96897556\r2=1.45491931\
 r3=1.45878406\r4=1.17469263\a1=97.59494903\a2=102.29752444\a3=109.0695
 5123\d1=180.\d2=180.\\Version=ES64L-G16RevB.01\State=1-A'\HF=-279.5009
 885\MP2=-280.4467151\RMSD=3.898e-09\RMSF=1.953e-03\ZeroPoint=0.0218467
 \Thermal=0.0259449\Dipole=-0.1524248,0.,-0.5595699\DipoleDeriv=0.26638
 13,0.,0.0483535,0.,0.3556843,0.,0.0824015,0.,0.2760439,-0.3288386,0.,-

 Normal termination of Gaussian 16 at Mon Feb 21 20:28:21 2022.
