 Gaussian 16, Revision B.01,
 Gaussian 16:  ES64L-G16RevB.01 20-Dec-2017

 ---------------------------------------
 #p freq mp2/aug-cc-pvtz density=current
 ---------------------------------------

 -----
 title
 -----
 Symbolic Z-matrix:
 Charge =  0 Multiplicity = 1

                         Standard orientation:
 ---------------------------------------------------------------------
 Center     Atomic      Atomic             Coordinates (Angstroms)
 Number     Number       Type             X           Y           Z
 ---------------------------------------------------------------------
      1          1           0        1.550291    1.690274   -0.000000
      2          8           0        1.454120    0.726083   -0.000000
      3          8           0        0.000000    0.677871    0.000000
      4          7           0       -0.263303   -0.756954    0.000000
      5          8           0       -1.417517   -0.952903    0.000000
 ---------------------------------------------------------------------

 SCF Done:  E(RHF) =  -279.501547873     A.U. after   14 cycles
 E2 =    -0.9451183233D+00 EUMP2 =    -0.28044666619617D+03
 E2 =    -0.9451183233D+00 EUMP2 =    -0.28044666619617D+03

 The electronic state is 1-A'.
 Alpha  occ. eigenvalues --  -20.69129 -20.68463 -20.66059 -15.81249  -1.62324
 Alpha  occ. eigenvalues --   -1.49645  -1.25518  -0.94782  -0.77329  -0.75886
 Alpha  occ. eigenvalues --   -0.71161  -0.67962  -0.62083  -0.59025  -0.48567
 Alpha  occ. eigenvalues --   -0.47131
 Alpha virt. eigenvalues --    0.02955   0.07208   0.08575   0.10173   0.13401
 Alpha virt. eigenvalues --    0.13401   0.14404   0.15460   0.17816   0.19421
 Alpha virt. eigenvalues --    0.19977   0.20617   0.22082   0.23448   0.23725

 Mulliken charges:
               1
     1  H    0.250292
     2  O   -0.199521
     3  O   -0.148492
     4  N    0.290630
     5  O   -0.192910
 Sum of Mulliken charges =  -0.00000

 Dipole moment (field-independent basis, Debye):
    X=              0.5053    Y=              1.3731    Z=             -0.0000  Tot=              1.4631
 Quadrupole moment (field-independent basis, Debye-Ang):
   XX=            -22.4383   YY=            -18.6220   ZZ=            -22.0152
   XY=              3.2796   XZ=              0.0000   YZ=             -0.0000

  Exact polarizability:  34.026   9.561  30.399  -0.000  -0.000  17.945
 Approx polarizability:  28.979   5.230  23.621  -0.000  -0.000  15.530

 ******    1 imaginary frequencies (negative Signs) ******

                      1                      2                      3
                     A"                     A"                     A'
 Frequencies --   -272.3730               227.7286               340.8735
 Red. masses --      1.1426                10.1431                 8.5825
 Frc consts  --      0.0499                 0.3099                 0.5876
 IR Inten    --    124.4652                 1.0373                 6.1316

                      4                      5                      6
                     A'                     A'                     A'
 Frequencies --    443.5633               786.6344               966.4177
 Red. masses --     12.4400                12.9068                15.3239
 Frc consts  --      1.4421                 4.7056                 8.4323
 IR Inten    --    199.2428               174.6976                24.3552

                      7                      8                      9
                     A'                     A'                     A'
 Frequencies --   1371.0565              1677.0398              3778.8686
 Red. masses --      1.1336                13.1652                 1.0675
 Frc consts  --      1.2555                21.8155                 8.9818
 IR Inten    --    154.8179               143.2475                83.3003

 - Thermochemistry -
 -------------------
 Temperature   298.150 Kelvin.  Pressure   1.00000 Atm.
 Atom     1 has atomic number  1 and mass   1.00783

 Molecular mass:    62.99564 amu.
 Principal axes and moments of inertia in atomic units:
                           1         2         3
     Eigenvalues --    32.68955 361.84010 394.52965
           X            0.80791  -0.58931   0.00000
           Y            0.58931   0.80791   0.00000
           Z           -0.00000   0.00000   1.00000
 This molecule is an asymmetric top.
 Rotational symmetry number  1.
 Rotational temperatures (Kelvin)      2.64959     0.23937     0.21954
 Rotational constants (GHZ):          55.20850     4.98768     4.57441
    1 imaginary frequencies ignored.
 Zero-point vibrational energy      57374.0 (Joules/Mol)
                                   13.71271 (Kcal/Mol)
 Warning -- explicit consideration of   3 degrees of freedom as
           vibrations may cause significant error
 Vibrational temperatures:    327.65   490.44   638.19  1131.79  1390.46
          (Kelvin)           1972.64  2412.89  5436.95

 Zero-point correction=                           0.021853 (Hartree/Particle)
 Thermal correction to Energy=                    0.025980
 Thermal correction to Enthalpy=                  0.026924
 Thermal correction to Gibbs Free Energy=        -0.004280
 Sum of electronic and zero-point Energies=           -280.424814
 Sum of electronic and thermal Energies=              -280.420687
 Sum of electronic and thermal Enthalpies=            -280.419742
 Sum of electronic and thermal Free Energies=         -280.450946

                     E (Thermal)             CV                S
                      KCal/Mol        Cal/Mol-Kelvin    Cal/Mol-Kelvin
 Total                   16.302             11.974             65.673
 Electronic               0.000              0.000              0.000
 Translational            0.889              2.981             38.341
 Rotational               0.889              2.981             23.061
 Vibrational             14.525              6.013              4.272
 Vibration     1          0.651              1.799              1.897
 Vibration     2          0.720              1.594              1.208
 Vibration     3          0.803              1.375              0.815

                       ! Non-Optimized Parameters !

 1\1\GINC-N2109\Freq\RMP2-FC\Aug-CC-pVTZ\H1N1O3\CGAVINH\21-Feb-2022\1\\
 #p freq mp2/aug-cc-pvtz density=current\\title\\0,1\H\O,1,r1\O,2,r2,1,
 a1\N,3,r3,2,a2,1,d1,0\O,4,r4,3,a3,2,d2,0\\r1=0.96897556\r2=1.45491931\
 r3=1.45878406\r4=1.17072885\a1=97.59494903\a2=102.29752444\a3=110.0337
 4161\d1=180.\d2=180.\\Version=ES64L-G16RevB.01\State=1-A'\HF=-279.5015
 479\MP2=-280.4466662\RMSD=3.837e-09\RMSF=1.798e-03\ZeroPoint=0.0218526
 \Thermal=0.0259795\Dipole=-0.1441967,0.,-0.5572904\DipoleDeriv=0.26690
 5,0.,0.0485705,0.,0.3557319,0.,0.0829378,0.,0.2770386,-0.3260995,0.,-0

 Normal termination of Gaussian 16 at Mon Feb 21 20:54:24 2022.
