 Gaussian 16, Revision B.01,
 Gaussian 16:  ES64L-G16RevB.01 20-Dec-2017

 ---------------------------------------
 #p freq mp2/aug-cc-pvtz density=current
 ---------------------------------------

 -----
 title
 -----
 Symbolic Z-matrix:
 Charge =  0 Multiplicity = 1

                         Standard orientation:
 ---------------------------------------------------------------------
 Center     Atomic      Atomic             Coordinates (Angstroms)
 Number     Number       Type             X           Y           Z
 ---------------------------------------------------------------------
      1          1           0        1.545437    1.706420    0.000000
      2          8           0        1.453873    0.741780    0.000000
      3          8           0       -0.000000    0.686622    0.000000
      4          7           0       -0.261633   -0.778495    0.000000
      5          8           0       -1.418124   -0.960521    0.000000
 ---------------------------------------------------------------------

 SCF Done:  E(RHF) =  -279.498631625     A.U. after   14 cycles
 E2 =    -0.9479288381D+00 EUMP2 =    -0.28044656046355D+03
 E2 =    -0.9479288381D+00 EUMP2 =    -0.28044656046355D+03

 The electronic state is 1-A'.
 Alpha  occ. eigenvalues --  -20.69125 -20.68590 -20.65636 -15.81761  -1.62315
 Alpha  occ. eigenvalues --   -1.49138  -1.24563  -0.95048  -0.77049  -0.75595
 Alpha  occ. eigenvalues --   -0.70715  -0.68085  -0.62184  -0.58780  -0.48205
 Alpha  occ. eigenvalues --   -0.47100
 Alpha virt. eigenvalues --    0.03044   0.06788   0.08537   0.10136   0.13378
 Alpha virt. eigenvalues --    0.13414   0.14470   0.15511   0.17890   0.19398
 Alpha virt. eigenvalues --    0.19966   0.20187   0.22156   0.23667   0.23705

 Mulliken charges:
               1
     1  H    0.249961
     2  O   -0.203613
     3  O   -0.166124
     4  N    0.300162
     5  O   -0.180386
 Sum of Mulliken charges =  -0.00000

 Dipole moment (field-independent basis, Debye):
    X=              0.3754    Y=              1.1888    Z=              0.0000  Tot=              1.2467
 Quadrupole moment (field-independent basis, Debye-Ang):
   XX=            -22.4189   YY=            -18.4891   ZZ=            -22.0524
   XY=              3.3115   XZ=             -0.0000   YZ=             -0.0000

  Exact polarizability:  33.988   9.638  30.870   0.000   0.000  18.030
 Approx polarizability:  29.152   5.311  24.210  -0.000  -0.000  15.567

 ******    1 imaginary frequencies (negative Signs) ******

                      1                      2                      3
                     A"                     A"                     A'
 Frequencies --   -277.2178               240.8561               330.9302
 Red. masses --      1.1327                10.8902                 8.5000
 Frc consts  --      0.0513                 0.3722                 0.5485
 IR Inten    --    125.4038                 0.6575                12.5896

                      4                      5                      6
                     A'                     A'                     A'
 Frequencies --    396.8014               768.8781               962.5328
 Red. masses --     12.5453                13.1679                15.5329
 Frc consts  --      1.1638                 4.5865                 8.4788
 IR Inten    --    213.9784               150.8802                19.7904

                      7                      8                      9
                     A'                     A'                     A'
 Frequencies --   1365.7846              1664.6083              3778.0176
 Red. masses --      1.1296                13.3383                 1.0676
 Frc consts  --      1.2415                21.7758                 8.9778
 IR Inten    --    147.7347               155.3754                82.9613

 - Thermochemistry -
 -------------------
 Temperature   298.150 Kelvin.  Pressure   1.00000 Atm.
 Atom     1 has atomic number  1 and mass   1.00783

 Molecular mass:    62.99564 amu.
 Principal axes and moments of inertia in atomic units:
                           1         2         3
     Eigenvalues --    33.58877 365.58017 399.16894
           X            0.80268  -0.59641   0.00000
           Y            0.59641   0.80268   0.00000
           Z            0.00000   0.00000   1.00000
 This molecule is an asymmetric top.
 Rotational symmetry number  1.
 Rotational temperatures (Kelvin)      2.57866     0.23692     0.21699
 Rotational constants (GHZ):          53.73049     4.93665     4.52125
    1 imaginary frequencies ignored.
 Zero-point vibrational energy      56872.9 (Joules/Mol)
                                   13.59295 (Kcal/Mol)
 Warning -- explicit consideration of   3 degrees of freedom as
           vibrations may cause significant error
 Vibrational temperatures:    346.54   476.13   570.91  1106.24  1384.87
          (Kelvin)           1965.06  2395.00  5435.72

 Zero-point correction=                           0.021662 (Hartree/Particle)
 Thermal correction to Energy=                    0.025831
 Thermal correction to Enthalpy=                  0.026775
 Thermal correction to Gibbs Free Energy=        -0.004511
 Sum of electronic and zero-point Energies=           -280.424899
 Sum of electronic and thermal Energies=              -280.420730
 Sum of electronic and thermal Enthalpies=            -280.419786
 Sum of electronic and thermal Free Energies=         -280.451071

                     E (Thermal)             CV                S
                      KCal/Mol        Cal/Mol-Kelvin    Cal/Mol-Kelvin
 Total                   16.209             12.114             65.846
 Electronic               0.000              0.000              0.000
 Translational            0.889              2.981             38.341
 Rotational               0.889              2.981             23.109
 Vibrational             14.431              6.153              4.396
 Vibration     1          0.658              1.778              1.797
 Vibration     2          0.713              1.614              1.256
 Vibration     3          0.763              1.477              0.974

                       ! Non-Optimized Parameters !

 1\1\GINC-N2126\Freq\RMP2-FC\Aug-CC-pVTZ\H1N1O3\CGAVINH\21-Feb-2022\1\\
 #p freq mp2/aug-cc-pvtz density=current\\title\\0,1\H\O,1,r1\O,2,r2,1,
 a1\N,3,r3,2,a2,1,d1,0\O,4,r4,3,a3,2,d2,0\\r1=0.96897556\r2=1.45491931\
 r3=1.48829435\r4=1.17072885\a1=97.59494903\a2=102.29752444\a3=109.0695
 5123\d1=180.\d2=180.\\Version=ES64L-G16RevB.01\State=1-A'\HF=-279.4986
 316\MP2=-280.4465605\RMSD=4.238e-09\RMSF=2.982e-03\ZeroPoint=0.0216617
 \Thermal=0.0258306\Dipole=-0.1028494,0.,-0.4795672\DipoleDeriv=0.26379
 09,0.,0.0454898,0.,0.3546766,0.,0.0821029,0.,0.2756417,-0.333727,0.,-0

 Normal termination of Gaussian 16 at Mon Feb 21 20:20:35 2022.
