 Gaussian 16, Revision B.01,
 Gaussian 16:  ES64L-G16RevB.01 20-Dec-2017

 ---------------------------------------
 #p freq mp2/aug-cc-pvtz density=current
 ---------------------------------------

 -----
 title
 -----
 Symbolic Z-matrix:
 Charge =  0 Multiplicity = 1

                         Standard orientation:
 ---------------------------------------------------------------------
 Center     Atomic      Atomic             Coordinates (Angstroms)
 Number     Number       Type             X           Y           Z
 ---------------------------------------------------------------------
      1          1           0        1.577813    1.674456    0.000000
      2          8           0        1.474629    0.710990    0.000000
      3          8           0       -0.000000    0.672838    0.000000
      4          7           0       -0.273736   -0.760033   -0.000000
      5          8           0       -1.432337   -0.928107   -0.000000
 ---------------------------------------------------------------------

 SCF Done:  E(RHF) =  -279.499813430     A.U. after   14 cycles
 E2 =    -0.9467147378D+00 EUMP2 =    -0.28044652816743D+03
 E2 =    -0.9467147378D+00 EUMP2 =    -0.28044652816743D+03

 The electronic state is 1-A'.
 Alpha  occ. eigenvalues --  -20.69201 -20.68464 -20.66171 -15.81322  -1.62349
 Alpha  occ. eigenvalues --   -1.48789  -1.25798  -0.94779  -0.77073  -0.75760
 Alpha  occ. eigenvalues --   -0.71006  -0.67939  -0.61854  -0.58656  -0.48877
 Alpha  occ. eigenvalues --   -0.47294
 Alpha virt. eigenvalues --    0.02959   0.07165   0.08540   0.10162   0.13286
 Alpha virt. eigenvalues --    0.13398   0.14397   0.15444   0.17830   0.19436
 Alpha virt. eigenvalues --    0.19989   0.20609   0.21641   0.22898   0.23722

 Mulliken charges:
               1
     1  H    0.251411
     2  O   -0.204033
     3  O   -0.148122
     4  N    0.293344
     5  O   -0.192600
 Sum of Mulliken charges =  -0.00000

 Dipole moment (field-independent basis, Debye):
    X=              0.5119    Y=              1.3429    Z=              0.0000  Tot=              1.4372
 Quadrupole moment (field-independent basis, Debye-Ang):
   XX=            -22.3579   YY=            -18.6901   ZZ=            -22.0382
   XY=              3.3185   XZ=             -0.0000   YZ=             -0.0000

  Exact polarizability:  34.494   9.503  30.172   0.000   0.000  17.995
 Approx polarizability:  29.610   5.089  23.476   0.000   0.000  15.555

 ******    1 imaginary frequencies (negative Signs) ******

                      1                      2                      3
                     A"                     A"                     A'
 Frequencies --   -276.8989               235.2733               343.6594
 Red. masses --      1.1418                10.2655                 8.7491
 Frc consts  --      0.0516                 0.3348                 0.6088
 IR Inten    --    124.0228                 0.9424                 2.3859

                      4                      5                      6
                     A'                     A'                     A'
 Frequencies --    445.7755               770.6854               929.0602
 Red. masses --     12.1253                13.2557                14.7123
 Frc consts  --      1.4196                 4.6388                 7.4820
 IR Inten    --    198.6135               160.5829                36.1943

                      7                      8                      9
                     A'                     A'                     A'
 Frequencies --   1348.5988              1676.3229              3780.5938
 Red. masses --      1.1324                13.4211                 1.0677
 Frc consts  --      1.2134                22.2204                 8.9910
 IR Inten    --    151.0566               141.6746                81.5109

 - Thermochemistry -
 -------------------
 Temperature   298.150 Kelvin.  Pressure   1.00000 Atm.
 Atom     1 has atomic number  1 and mass   1.00783

 Molecular mass:    62.99564 amu.
 Principal axes and moments of inertia in atomic units:
                           1         2         3
     Eigenvalues --    33.13660 363.57531 396.71190
           X            0.81748  -0.57596   0.00000
           Y            0.57596   0.81748   0.00000
           Z            0.00000  -0.00000   1.00000
 This molecule is an asymmetric top.
 Rotational symmetry number  1.
 Rotational temperatures (Kelvin)      2.61384     0.23823     0.21833
 Rotational constants (GHZ):          54.46368     4.96387     4.54925
    1 imaginary frequencies ignored.
 Zero-point vibrational energy      57001.9 (Joules/Mol)
                                   13.62378 (Kcal/Mol)
 Warning -- explicit consideration of   3 degrees of freedom as
           vibrations may cause significant error
 Vibrational temperatures:    338.51   494.45   641.37  1108.84  1336.71
          (Kelvin)           1940.33  2411.85  5439.43

 Zero-point correction=                           0.021711 (Hartree/Particle)
 Thermal correction to Energy=                    0.025834
 Thermal correction to Enthalpy=                  0.026778
 Thermal correction to Gibbs Free Energy=        -0.004415
 Sum of electronic and zero-point Energies=           -280.424817
 Sum of electronic and thermal Energies=              -280.420694
 Sum of electronic and thermal Enthalpies=            -280.419750
 Sum of electronic and thermal Free Energies=         -280.450943

                     E (Thermal)             CV                S
                      KCal/Mol        Cal/Mol-Kelvin    Cal/Mol-Kelvin
 Total                   16.211             12.034             65.652
 Electronic               0.000              0.000              0.000
 Translational            0.889              2.981             38.341
 Rotational               0.889              2.981             23.084
 Vibrational             14.434              6.073              4.227
 Vibration     1          0.655              1.787              1.838
 Vibration     2          0.722              1.588              1.195
 Vibration     3          0.805              1.370              0.809

                       ! Non-Optimized Parameters !

 1\1\GINC-N2128\Freq\RMP2-FC\Aug-CC-pVTZ\H1N1O3\CGAVINH\21-Feb-2022\1\\
 #p freq mp2/aug-cc-pvtz density=current\\title\\0,1\H\O,1,r1\O,2,r2,1,
 a1\N,3,r3,2,a2,1,d1,0\O,4,r4,3,a3,2,d2,0\\r1=0.96897556\r2=1.47512264\
 r3=1.45878406\r4=1.17072885\a1=97.59494903\a2=102.29752444\a3=109.0695
 5123\d1=180.\d2=180.\\Version=ES64L-G16RevB.01\State=1-A'\HF=-279.4998
 134\MP2=-280.4465282\RMSD=3.996e-09\RMSF=3.443e-03\ZeroPoint=0.0217109
 \Thermal=0.0258339\Dipole=-0.1439953,0.,-0.5467966\DipoleDeriv=0.26598
 41,0.,0.0471208,0.,0.3546888,0.,0.0849304,0.,0.272902,-0.3278689,0.,-0

 Normal termination of Gaussian 16 at Mon Feb 21 20:11:59 2022.
