 Gaussian 16, Revision B.01,
 Gaussian 16:  ES64L-G16RevB.01 20-Dec-2017

 ---------------------------------------
 #p freq mp2/aug-cc-pvtz density=current
 ---------------------------------------

 -----
 title
 -----
 Symbolic Z-matrix:
 Charge =  0 Multiplicity = 1

                         Standard orientation:
 ---------------------------------------------------------------------
 Center     Atomic      Atomic             Coordinates (Angstroms)
 Number     Number       Type             X           Y           Z
 ---------------------------------------------------------------------
      1          1           0        1.551664    1.683048    0.000000
      2          8           0        1.454184    0.718988    0.000000
      3          8           0        0.000000    0.672750    0.000000
      4          7           0       -0.265250   -0.761716   -0.000000
      5          8           0       -1.416048   -0.935618   -0.000000
 ---------------------------------------------------------------------

 SCF Done:  E(RHF) =  -279.502782407     A.U. after   14 cycles
 E2 =    -0.9438777907D+00 EUMP2 =    -0.28044666019764D+03
 E2 =    -0.9438777907D+00 EUMP2 =    -0.28044666019764D+03

 The electronic state is 1-A'.
 Alpha  occ. eigenvalues --  -20.68927 -20.68459 -20.65910 -15.81183  -1.62968
 Alpha  occ. eigenvalues --   -1.49580  -1.25371  -0.94713  -0.77362  -0.76101
 Alpha  occ. eigenvalues --   -0.71326  -0.68017  -0.62181  -0.58897  -0.48464
 Alpha  occ. eigenvalues --   -0.47115
 Alpha virt. eigenvalues --    0.02981   0.07379   0.08583   0.10172   0.13383
 Alpha virt. eigenvalues --    0.13405   0.14423   0.15470   0.17838   0.19409
 Alpha virt. eigenvalues --    0.20006   0.20637   0.22104   0.23601   0.23743

 Mulliken charges:
               1
     1  H    0.250027
     2  O   -0.202147
     3  O   -0.148689
     4  N    0.292444
     5  O   -0.191635
 Sum of Mulliken charges =  -0.00000

 Dipole moment (field-independent basis, Debye):
    X=              0.4821    Y=              1.3303    Z=              0.0000  Tot=              1.4149
 Quadrupole moment (field-independent basis, Debye-Ang):
   XX=            -22.4325   YY=            -18.6158   ZZ=            -21.9989
   XY=              3.2794   XZ=              0.0000   YZ=             -0.0000

  Exact polarizability:  33.929   9.397  30.161   0.000   0.000  17.915
 Approx polarizability:  28.858   5.051  23.462   0.000   0.000  15.492

 ******    1 imaginary frequencies (negative Signs) ******

                      1                      2                      3
                     A"                     A"                     A'
 Frequencies --   -268.2778               203.7888               335.5691
 Red. masses --      1.1472                 9.8581                 8.6972
 Frc consts  --      0.0486                 0.2412                 0.5770
 IR Inten    --    124.2345                 1.2560                 3.1844

                      4                      5                      6
                     A'                     A'                     A'
 Frequencies --    455.5563               784.9412               968.0087
 Red. masses --     12.2223                12.7642                15.3996
 Frc consts  --      1.4945                 4.6336                 8.5020
 IR Inten    --    200.5281               171.0707                21.7232

                      7                      8                      9
                     A'                     A'                     A'
 Frequencies --   1371.7643              1721.9153              3778.6376
 Red. masses --      1.1307                13.6809                 1.0675
 Frc consts  --      1.2536                23.8994                 8.9806
 IR Inten    --    149.6827               156.9785                82.0172

 - Thermochemistry -
 -------------------
 Temperature   298.150 Kelvin.  Pressure   1.00000 Atm.
 Atom     1 has atomic number  1 and mass   1.00783

 Molecular mass:    62.99564 amu.
 Principal axes and moments of inertia in atomic units:
                           1         2         3
     Eigenvalues --    32.81270 358.98653 391.79923
           X            0.81105  -0.58498   0.00000
           Y            0.58498   0.81105   0.00000
           Z           -0.00000   0.00000   1.00000
 This molecule is an asymmetric top.
 Rotational symmetry number  1.
 Rotational temperatures (Kelvin)      2.63965     0.24127     0.22107
 Rotational constants (GHZ):          55.00130     5.02732     4.60629
    1 imaginary frequencies ignored.
 Zero-point vibrational energy      57541.5 (Joules/Mol)
                                   13.75274 (Kcal/Mol)
 Warning -- explicit consideration of   3 degrees of freedom as
           vibrations may cause significant error
 Vibrational temperatures:    293.21   482.81   655.44  1129.36  1392.75
          (Kelvin)           1973.66  2477.45  5436.62

 Zero-point correction=                           0.021916 (Hartree/Particle)
 Thermal correction to Energy=                    0.026075
 Thermal correction to Enthalpy=                  0.027019
 Thermal correction to Gibbs Free Energy=        -0.004269
 Sum of electronic and zero-point Energies=           -280.424744
 Sum of electronic and thermal Energies=              -280.420585
 Sum of electronic and thermal Enthalpies=            -280.419641
 Sum of electronic and thermal Free Energies=         -280.450929

                     E (Thermal)             CV                S
                      KCal/Mol        Cal/Mol-Kelvin    Cal/Mol-Kelvin
 Total                   16.362             11.989             65.852
 Electronic               0.000              0.000              0.000
 Translational            0.889              2.981             38.341
 Rotational               0.889              2.981             23.050
 Vibrational             14.585              6.027              4.462
 Vibration     1          0.639              1.835              2.099
 Vibration     2          0.717              1.604              1.233
 Vibration     3          0.814              1.349              0.779

                       ! Non-Optimized Parameters !

 1\1\GINC-N2109\Freq\RMP2-FC\Aug-CC-pVTZ\H1N1O3\CGAVINH\21-Feb-2022\1\\
 #p freq mp2/aug-cc-pvtz density=current\\title\\0,1\H\O,1,r1\O,2,r2,1,
 a1\N,3,r3,2,a2,1,d1,0\O,4,r4,3,a3,2,d2,0\\r1=0.96897556\r2=1.45491931\
 r3=1.45878406\r4=1.16386338\a1=97.59494903\a2=102.29752444\a3=109.0695
 5123\d1=180.\d2=180.\\Version=ES64L-G16RevB.01\State=1-A'\HF=-279.5027
 824\MP2=-280.4466602\RMSD=3.608e-09\RMSF=3.952e-03\ZeroPoint=0.0219164
 \Thermal=0.0260752\Dipole=-0.1360389,0.,-0.5398058\DipoleDeriv=0.26634
 61,0.,0.048181,0.,0.3553243,0.,0.0816885,0.,0.2747742,-0.3267967,0.,-0

 Normal termination of Gaussian 16 at Mon Feb 21 20:32:37 2022.
