 Gaussian 16, Revision B.01,
 Gaussian 16:  ES64L-G16RevB.01 20-Dec-2017

 ---------------------------------------
 #p freq mp2/aug-cc-pvtz density=current
 ---------------------------------------

 -----
 title
 -----
 Symbolic Z-matrix:
 Charge =  0 Multiplicity = 1

                         Standard orientation:
 ---------------------------------------------------------------------
 Center     Atomic      Atomic             Coordinates (Angstroms)
 Number     Number       Type             X           Y           Z
 ---------------------------------------------------------------------
      1          1           0        1.550955    1.691817   -0.000000
      2          8           0        1.454152    0.727689   -0.000000
      3          8           0       -0.000000    0.680431   -0.000000
      4          7           0       -0.264244   -0.754221    0.000000
      5          8           0       -1.416808   -0.959653    0.000000
 ---------------------------------------------------------------------

 SCF Done:  E(RHF) =  -279.501414619     A.U. after   14 cycles
 E2 =    -0.9451615724D+00 EUMP2 =    -0.28044657619188D+03
 E2 =    -0.9451615724D+00 EUMP2 =    -0.28044657619188D+03

 The electronic state is 1-A'.
 Alpha  occ. eigenvalues --  -20.69150 -20.68481 -20.66090 -15.81231  -1.62283
 Alpha  occ. eigenvalues --   -1.49681  -1.25558  -0.94769  -0.77356  -0.75870
 Alpha  occ. eigenvalues --   -0.71152  -0.67975  -0.62102  -0.59068  -0.48591
 Alpha  occ. eigenvalues --   -0.47066
 Alpha virt. eigenvalues --    0.02952   0.07229   0.08565   0.10173   0.13404
 Alpha virt. eigenvalues --    0.13404   0.14403   0.15463   0.17810   0.19423
 Alpha virt. eigenvalues --    0.19975   0.20607   0.22081   0.23398   0.23719

 Mulliken charges:
               1
     1  H    0.250298
     2  O   -0.198444
     3  O   -0.149166
     4  N    0.290043
     5  O   -0.192730
 Sum of Mulliken charges =  -0.00000

 Dipole moment (field-independent basis, Debye):
    X=              0.5035    Y=              1.3794    Z=             -0.0000  Tot=              1.4684
 Quadrupole moment (field-independent basis, Debye-Ang):
   XX=            -22.4221   YY=            -18.6254   ZZ=            -22.0178
   XY=              3.2920   XZ=              0.0000   YZ=             -0.0000

  Exact polarizability:  34.038   9.608  30.477  -0.000  -0.000  17.955
 Approx polarizability:  28.964   5.295  23.676  -0.000  -0.000  15.535

 ******    1 imaginary frequencies (negative Signs) ******

                      1                      2                      3
                     A"                     A"                     A'
 Frequencies --   -274.0555               226.7379               340.5360
 Red. masses --      1.1448                 9.9437                 8.5655
 Frc consts  --      0.0507                 0.3012                 0.5852
 IR Inten    --    124.3044                 1.1947                 7.1930

                      4                      5                      6
                     A'                     A'                     A'
 Frequencies --    439.2295               787.2416               965.9877
 Red. masses --     12.5061                12.9034                15.2844
 Frc consts  --      1.4215                 4.7116                 8.4031
 IR Inten    --    198.8668               176.5642                25.3198

                      7                      8                      9
                     A'                     A'                     A'
 Frequencies --   1370.9338              1676.8612              3778.9548
 Red. masses --      1.1337                13.1421                 1.0676
 Frc consts  --      1.2554                21.7726                 8.9822
 IR Inten    --    155.7479               144.7124                83.6958

 - Thermochemistry -
 -------------------
 Temperature   298.150 Kelvin.  Pressure   1.00000 Atm.
 Atom     1 has atomic number  1 and mass   1.00783

 Molecular mass:    62.99564 amu.
 Principal axes and moments of inertia in atomic units:
                           1         2         3
     Eigenvalues --    32.61355 362.71996 395.33350
           X            0.80673  -0.59092   0.00000
           Y            0.59092   0.80673   0.00000
           Z           -0.00000   0.00000   1.00000
 This molecule is an asymmetric top.
 Rotational symmetry number  1.
 Rotational temperatures (Kelvin)      2.65577     0.23879     0.21909
 Rotational constants (GHZ):          55.33716     4.97558     4.56511
    1 imaginary frequencies ignored.
 Zero-point vibrational energy      57339.9 (Joules/Mol)
                                   13.70456 (Kcal/Mol)
 Warning -- explicit consideration of   3 degrees of freedom as
           vibrations may cause significant error
 Vibrational temperatures:    326.23   489.96   631.95  1132.67  1389.84
          (Kelvin)           1972.47  2412.63  5437.07

 Zero-point correction=                           0.021840 (Hartree/Particle)
 Thermal correction to Energy=                    0.025972
 Thermal correction to Enthalpy=                  0.026916
 Thermal correction to Gibbs Free Energy=        -0.004299
 Sum of electronic and zero-point Energies=           -280.424737
 Sum of electronic and thermal Energies=              -280.420604
 Sum of electronic and thermal Enthalpies=            -280.419660
 Sum of electronic and thermal Free Energies=         -280.450875

                     E (Thermal)             CV                S
                      KCal/Mol        Cal/Mol-Kelvin    Cal/Mol-Kelvin
 Total                   16.298             11.986             65.698
 Electronic               0.000              0.000              0.000
 Translational            0.889              2.981             38.341
 Rotational               0.889              2.981             23.063
 Vibrational             14.520              6.024              4.294
 Vibration     1          0.650              1.800              1.905
 Vibration     2          0.720              1.594              1.210
 Vibration     3          0.799              1.385              0.829

                       ! Non-Optimized Parameters !

 1\1\GINC-N2127\Freq\RMP2-FC\Aug-CC-pVTZ\H1N1O3\CGAVINH\21-Feb-2022\1\\
 #p freq mp2/aug-cc-pvtz density=current\\title\\0,1\H\O,1,r1\O,2,r2,1,
 a1\N,3,r3,2,a2,1,d1,0\O,4,r4,3,a3,2,d2,0\\r1=0.96897556\r2=1.45491931\
 r3=1.45878406\r4=1.17072885\a1=97.59494903\a2=102.29752444\a3=110.5423
 7636\d1=180.\d2=180.\\Version=ES64L-G16RevB.01\State=1-A'\HF=-279.5014
 146\MP2=-280.4465762\RMSD=3.864e-09\RMSF=2.738e-03\ZeroPoint=0.0218396
 \Thermal=0.025972\Dipole=-0.142886,0.,-0.5597803\DipoleDeriv=0.2671766
 ,0.,0.0487171,0.,0.3558217,0.,0.0833481,0.,0.2777953,-0.3251565,0.,-0.

 Normal termination of Gaussian 16 at Mon Feb 21 20:56:05 2022.
