 Gaussian 16, Revision B.01,
 Gaussian 16:  ES64L-G16RevB.01 20-Dec-2017

 ---------------------------------------
 #p freq mp2/aug-cc-pvtz density=current
 ---------------------------------------

 -----
 title
 -----
 Symbolic Z-matrix:
 Charge =  0 Multiplicity = 1

                         Standard orientation:
 ---------------------------------------------------------------------
 Center     Atomic      Atomic             Coordinates (Angstroms)
 Number     Number       Type             X           Y           Z
 ---------------------------------------------------------------------
      1          1           0       -2.248820    0.434593   -0.009642
      2          8           0       -1.598723   -0.283935   -0.007478
      3          8           0       -0.400384    0.541003    0.008422
      4          7           0        0.663714   -0.456857    0.012952
      5          8           0        1.699460    0.088358   -0.011072
 ---------------------------------------------------------------------

 SCF Done:  E(RHF) =  -279.501672813     A.U. after   14 cycles
 E2 =    -0.9450391693D+00 EUMP2 =    -0.28044671198227D+03
 E2 =    -0.9450391693D+00 EUMP2 =    -0.28044671198227D+03

 The electronic state is 1-A.
 Alpha  occ. eigenvalues --  -20.69087 -20.68431 -20.65998 -15.81283  -1.62403
 Alpha  occ. eigenvalues --   -1.49574  -1.25441  -0.94807  -0.77278  -0.75918
 Alpha  occ. eigenvalues --   -0.71183  -0.67933  -0.62047  -0.58942  -0.48522
 Alpha  occ. eigenvalues --   -0.47250
 Alpha virt. eigenvalues --    0.02963   0.07166   0.08595   0.10172   0.13338
 Alpha virt. eigenvalues --    0.13452   0.14408   0.15453   0.17823   0.19417
 Alpha virt. eigenvalues --    0.19977   0.20640   0.22083   0.23524   0.23759

 Mulliken charges:
               1
     1  H    0.250275
     2  O   -0.201584
     3  O   -0.147215
     4  N    0.291729
     5  O   -0.193205
 Sum of Mulliken charges =  -0.00000

 Dipole moment (field-independent basis, Debye):
    X=             -1.2177    Y=              0.7913    Z=             -0.0035  Tot=              1.4523
 Quadrupole moment (field-independent basis, Debye-Ang):
   XX=            -17.9907   YY=            -23.0932   ZZ=            -22.0110
   XY=             -2.7932   XZ=              0.0519   YZ=              0.0203

  Exact polarizability:  41.728  -0.975  22.520  -0.031  -0.021  17.930
 Approx polarizability:  31.945   1.131  20.579  -0.062  -0.004  15.525

 ******    1 imaginary frequencies (negative Signs) ******

                      1                      2                      3
                      A                      A                      A
 Frequencies --   -269.3076               228.6787               341.4042
 Red. masses --      1.1388                10.5210                 8.6176
 Frc consts  --      0.0487                 0.3242                 0.5918
 IR Inten    --    124.7299                 0.8824                 4.5480

                      4                      5                      6
                      A                      A                      A
 Frequencies --    451.6865               785.4384               967.2612
 Red. masses --     12.3143                12.9178                15.3946
 Frc consts  --      1.4802                 4.6953                 8.4861
 IR Inten    --    199.6692               170.7187                22.6150

                      7                      8                      9
                      A                      A                      A
 Frequencies --   1371.2327              1677.2978              3778.7004
 Red. masses --      1.1334                13.2086                 1.0675
 Frc consts  --      1.2556                21.8941                 8.9809
 IR Inten    --    152.9900               140.4443                82.5489

 - Thermochemistry -
 -------------------
 Temperature   298.150 Kelvin.  Pressure   1.00000 Atm.
 Atom     1 has atomic number  1 and mass   1.00783

 Molecular mass:    62.99564 amu.
 Principal axes and moments of inertia in atomic units:
                           1         2         3
     Eigenvalues --    32.86017 360.12292 392.93720
           X            0.99994  -0.01072   0.00022
           Y            0.01072   0.99994  -0.00048
           Z           -0.00022   0.00048   1.00000
 This molecule is an asymmetric top.
 Rotational symmetry number  1.
 Rotational temperatures (Kelvin)      2.63583     0.24051     0.22043
 Rotational constants (GHZ):          54.92185     5.01146     4.59295
    1 imaginary frequencies ignored.
 Zero-point vibrational energy      57430.9 (Joules/Mol)
                                   13.72632 (Kcal/Mol)
 Warning -- explicit consideration of   3 degrees of freedom as
           vibrations may cause significant error
 Vibrational temperatures:    329.02   491.20   649.88  1130.07  1391.67
          (Kelvin)           1972.90  2413.26  5436.71

 Zero-point correction=                           0.021874 (Hartree/Particle)
 Thermal correction to Energy=                    0.025992
 Thermal correction to Enthalpy=                  0.026937
 Thermal correction to Gibbs Free Energy=        -0.004249
 Sum of electronic and zero-point Energies=           -280.424838
 Sum of electronic and thermal Energies=              -280.420720
 Sum of electronic and thermal Enthalpies=            -280.419775
 Sum of electronic and thermal Free Energies=         -280.450961

                     E (Thermal)             CV                S
                      KCal/Mol        Cal/Mol-Kelvin    Cal/Mol-Kelvin
 Total                   16.311             11.955             65.635
 Electronic               0.000              0.000              0.000
 Translational            0.889              2.981             38.341
 Rotational               0.889              2.981             23.057
 Vibrational             14.533              5.993              4.238
 Vibration     1          0.651              1.797              1.889
 Vibration     2          0.721              1.593              1.206
 Vibration     3          0.810              1.357              0.791

                       ! Non-Optimized Parameters !

 1\1\GINC-N2108\Freq\RMP2-FC\Aug-CC-pVTZ\H1N1O3\CGAVINH\21-Feb-2022\1\\
 #p freq mp2/aug-cc-pvtz density=current\\title\\0,1\H\O,1,r1\O,2,r2,1,
 a1\N,3,r3,2,a2,1,d1,0\O,4,r4,3,a3,2,d2,0\\r1=0.96897556\r2=1.45491931\
 r3=1.45878406\r4=1.17072885\a1=97.59494903\a2=102.29752444\a3=109.0695
 5123\d1=180.\d2=178.09229069\\Version=ES64L-G16RevB.01\State=1-A\HF=-2
 79.5016728\MP2=-280.446712\RMSD=5.304e-09\RMSF=3.409e-04\ZeroPoint=0.0
 218743\Thermal=0.0259925\Dipole=-0.146374,0.0014308,-0.5522951\DipoleD
 eriv=0.2663689,0.0002847,0.0482756,-0.0006659,0.3555562,-0.0008396,0.0

 Normal termination of Gaussian 16 at Mon Feb 21 21:17:27 2022.
