 Gaussian 16, Revision B.01,
 Gaussian 16:  ES64L-G16RevB.01 20-Dec-2017

 ---------------------------------------
 #p freq mp2/aug-cc-pvtz density=current
 ---------------------------------------

 -----
 title
 -----
 Symbolic Z-matrix:
 Charge =  0 Multiplicity = 1

                         Standard orientation:
 ---------------------------------------------------------------------
 Center     Atomic      Atomic             Coordinates (Angstroms)
 Number     Number       Type             X           Y           Z
 ---------------------------------------------------------------------
      1          1           0        1.534461    1.689450   -0.000000
      2          8           0        1.454030    0.723818   -0.000000
      3          8           0       -0.000000    0.672969    0.000000
      4          7           0       -0.260700   -0.762331    0.000000
      5          8           0       -1.417726   -0.940929    0.000000
 ---------------------------------------------------------------------

 SCF Done:  E(RHF) =  -279.501549718     A.U. after   14 cycles
 E2 =    -0.9451639631D+00 EUMP2 =    -0.28044671368144D+03
 E2 =    -0.9451639631D+00 EUMP2 =    -0.28044671368144D+03

 The electronic state is 1-A'.
 Alpha  occ. eigenvalues --  -20.69079 -20.68428 -20.66031 -15.81281  -1.62407
 Alpha  occ. eigenvalues --   -1.49626  -1.25429  -0.94811  -0.77320  -0.75865
 Alpha  occ. eigenvalues --   -0.71189  -0.67915  -0.62061  -0.59021  -0.48533
 Alpha  occ. eigenvalues --   -0.47251
 Alpha virt. eigenvalues --    0.02972   0.07164   0.08594   0.10169   0.13391
 Alpha virt. eigenvalues --    0.13401   0.14409   0.15458   0.17823   0.19409
 Alpha virt. eigenvalues --    0.19973   0.20639   0.22077   0.23540   0.23737

 Mulliken charges:
               1
     1  H    0.251409
     2  O   -0.201645
     3  O   -0.147837
     4  N    0.291407
     5  O   -0.193334
 Sum of Mulliken charges =  -0.00000

 Dipole moment (field-independent basis, Debye):
    X=              0.4891    Y=              1.3594    Z=             -0.0000  Tot=              1.4447
 Quadrupole moment (field-independent basis, Debye-Ang):
   XX=            -22.5386   YY=            -18.6069   ZZ=            -22.0089
   XY=              3.2067   XZ=              0.0000   YZ=             -0.0000

  Exact polarizability:  33.954   9.445  30.252  -0.000   0.000  17.920
 Approx polarizability:  29.001   5.084  23.529  -0.000  -0.000  15.518

 ******    1 imaginary frequencies (negative Signs) ******

                      1                      2                      3
                     A"                     A"                     A'
 Frequencies --   -262.0409               227.2968               339.9820
 Red. masses --      1.1283                11.5695                 8.6560
 Frc consts  --      0.0456                 0.3522                 0.5895
 IR Inten    --    124.4211                 0.2933                 4.9397

                      4                      5                      6
                     A'                     A'                     A'
 Frequencies --    452.2151               786.1256               968.4863
 Red. masses --     12.3937                12.9182                15.5945
 Frc consts  --      1.4933                 4.7037                 8.6180
 IR Inten    --    198.9694               170.2263                23.1609

                      7                      8                      9
                     A'                     A'                     A'
 Frequencies --   1376.3955              1677.5240              3778.4232
 Red. masses --      1.1316                13.1086                 1.0673
 Frc consts  --      1.2630                21.7343                 8.9777
 IR Inten    --    156.3051               139.2113                81.5237

 - Thermochemistry -
 -------------------
 Temperature   298.150 Kelvin.  Pressure   1.00000 Atm.
 Atom     1 has atomic number  1 and mass   1.00783

 Molecular mass:    62.99564 amu.
 Principal axes and moments of inertia in atomic units:
                           1         2         3
     Eigenvalues --    32.87161 359.97332 392.84493
           X            0.80967  -0.58689   0.00000
           Y            0.58689   0.80967   0.00000
           Z           -0.00000   0.00000   1.00000
 This molecule is an asymmetric top.
 Rotational symmetry number  1.
 Rotational temperatures (Kelvin)      2.63492     0.24061     0.22048
 Rotational constants (GHZ):          54.90273     5.01354     4.59403
    1 imaginary frequencies ignored.
 Zero-point vibrational energy      57459.3 (Joules/Mol)
                                   13.73311 (Kcal/Mol)
 Warning -- explicit consideration of   3 degrees of freedom as
           vibrations may cause significant error
 Vibrational temperatures:    327.03   489.16   650.64  1131.06  1393.44
          (Kelvin)           1980.33  2413.58  5436.31

 Zero-point correction=                           0.021885 (Hartree/Particle)
 Thermal correction to Energy=                    0.026006
 Thermal correction to Enthalpy=                  0.026950
 Thermal correction to Gibbs Free Energy=        -0.004242
 Sum of electronic and zero-point Energies=           -280.424829
 Sum of electronic and thermal Energies=              -280.420708
 Sum of electronic and thermal Enthalpies=            -280.419764
 Sum of electronic and thermal Free Energies=         -280.450956

                     E (Thermal)             CV                S
                      KCal/Mol        Cal/Mol-Kelvin    Cal/Mol-Kelvin
 Total                   16.319             11.954             65.649
 Electronic               0.000              0.000              0.000
 Translational            0.889              2.981             38.341
 Rotational               0.889              2.981             23.057
 Vibrational             14.541              5.992              4.252
 Vibration     1          0.651              1.799              1.900
 Vibration     2          0.720              1.596              1.212
 Vibration     3          0.811              1.356              0.789

                       ! Non-Optimized Parameters !

 1\1\GINC-N2108\Freq\RMP2-FC\Aug-CC-pVTZ\H1N1O3\CGAVINH\21-Feb-2022\1\\
 #p freq mp2/aug-cc-pvtz density=current\\title\\0,1\H\O,1,r1\O,2,r2,1,
 a1\N,3,r3,2,a2,1,d1,0\O,4,r4,3,a3,2,d2,0\\r1=0.96897556\r2=1.45491931\
 r3=1.45878406\r4=1.17072885\a1=96.76424195\a2=102.29752444\a3=109.0695
 5123\d1=180.\d2=180.\\Version=ES64L-G16RevB.01\State=1-A'\HF=-279.5015
 497\MP2=-280.4467137\RMSD=3.782e-09\RMSF=7.197e-04\ZeroPoint=0.0218851
 \Thermal=0.0260059\Dipole=-0.1473596,0.,-0.5489468\DipoleDeriv=0.26953
 23,0.,0.0513101,0.,0.354559,0.,0.0805586,0.,0.2741107,-0.3338724,0.,-0

 Normal termination of Gaussian 16 at Mon Feb 21 20:41:29 2022.
