 Gaussian 16, Revision B.01,
 Gaussian 16:  ES64L-G16RevB.01 20-Dec-2017

 ------------------------------------------------------
 #p freq opt=(z-matrix) mp2/aug-cc-pvtz density=current
 ------------------------------------------------------

 -----
 title
 -----
 Symbolic Z-matrix:
 Charge =  0 Multiplicity = 1

 SCF Done:  E(RHF) =  -279.450475953     A.U. after   14 cycles
 E2 =    -0.9583835082D+00 EUMP2 =    -0.28040885946090D+03
 SCF Done:  E(RHF) =  -279.498203790     A.U. after   13 cycles
 E2 =    -0.9415830009D+00 EUMP2 =    -0.28043978679093D+03
 SCF Done:  E(RHF) =  -279.509020206     A.U. after   13 cycles
 E2 =    -0.9356084585D+00 EUMP2 =    -0.28044462866410D+03
 SCF Done:  E(RHF) =  -279.505713248     A.U. after   12 cycles
 E2 =    -0.9402847301D+00 EUMP2 =    -0.28044599797799D+03
 SCF Done:  E(RHF) =  -279.503207071     A.U. after   11 cycles
 E2 =    -0.9432995101D+00 EUMP2 =    -0.28044650658115D+03
 SCF Done:  E(RHF) =  -279.501953870     A.U. after   12 cycles
 E2 =    -0.9446349577D+00 EUMP2 =    -0.28044658882733D+03
 SCF Done:  E(RHF) =  -279.501085296     A.U. after   11 cycles
 E2 =    -0.9456024155D+00 EUMP2 =    -0.28044668771193D+03
 SCF Done:  E(RHF) =  -279.501596462     A.U. after   10 cycles
 E2 =    -0.9451221636D+00 EUMP2 =    -0.28044671862567D+03
 SCF Done:  E(RHF) =  -279.501376789     A.U. after    9 cycles
 E2 =    -0.9453560670D+00 EUMP2 =    -0.28044673285604D+03
 SCF Done:  E(RHF) =  -279.501687868     A.U. after    9 cycles
 E2 =    -0.9450468443D+00 EUMP2 =    -0.28044673471261D+03
 Optimization completed.
    -- Stationary point found.

 1\1\GINC-N2398\POpt\RMP2-FC\Aug-CC-pVTZ\H1N1O3\CGAVINH\07-Feb-2022\1\\
 #p freq opt=(z-matrix) mp2/aug-cc-pvtz density=current\\title\\0,1\H\O
 ,1,r1\O,2,r2,1,a1\N,3,r3,2,a2,1,d1,0\O,4,r4,3,a3,2,d2,0\\r1=0.96897556
 \r2=1.45491931\r3=1.45878406\r4=1.17072885\a1=97.59494903\a2=102.29752
 444\a3=109.06955123\d1=180.\d2=180.\\Version=ES64L-G16RevB.01\State=1-
 A'\HF=-279.5016879\MP2=-280.4467347\RMSD=3.861e-09\RMSF=1.686e-04\Dipo
 le=-0.1999678,0.5353662,0.\Quadrupole=-1.0685924,1.7961947,-0.7276023,
 -2.4207662,0.,0.\PG=CS [SG(H1N1O3)]\\@

 Normal termination of Gaussian 16 at Mon Feb  7 12:44:26 2022.

 ----------------------------------------------------------------------
 #P Geom=AllCheck Guess=TCheck SCRF=Check GenChk RMP2(FC)/Aug-CC-pVTZ F
 req
 ----------------------------------------------------------------------

 Structure from the checkpoint file:  "/gscratch/ilahie/mccoygrp/coire_hoono/hoono_eq.chk"
 -----
 title
 -----
 Charge =  0 Multiplicity = 1

                         Standard orientation:
 ---------------------------------------------------------------------
 Center     Atomic      Atomic             Coordinates (Angstroms)
 Number     Number       Type             X           Y           Z
 ---------------------------------------------------------------------
      1          1           0       -1.549112    1.687216   -0.000000
      2          8           0       -1.454063    0.722913   -0.000000
      3          8           0       -0.000000    0.673009    0.000000
      4          7           0        0.261632   -0.762121    0.000000
      5          8           0        1.418774   -0.939968    0.000000
 ---------------------------------------------------------------------

 SCF Done:  E(RHF) =  -279.501687868     A.U. after    1 cycles
 E2 =    -0.9450468573D+00 EUMP2 =    -0.28044673472557D+03
 E2 =    -0.9450468573D+00 EUMP2 =    -0.28044673472557D+03

 The electronic state is 1-A'.
 Alpha  occ. eigenvalues --  -20.69088 -20.68430 -20.65998 -15.81283  -1.62403
 Alpha  occ. eigenvalues --   -1.49574  -1.25441  -0.94807  -0.77278  -0.75918
 Alpha  occ. eigenvalues --   -0.71179  -0.67937  -0.62046  -0.58943  -0.48522
 Alpha  occ. eigenvalues --   -0.47250
 Alpha virt. eigenvalues --    0.02963   0.07167   0.08594   0.10172   0.13395
 Alpha virt. eigenvalues --    0.13396   0.14408   0.15453   0.17826   0.19417
 Alpha virt. eigenvalues --    0.19981   0.20636   0.22081   0.23542   0.23738

 Mulliken charges:
               1
     1  H    0.250262
     2  O   -0.201589
     3  O   -0.147163
     4  N    0.291743
     5  O   -0.193254
 Sum of Mulliken charges =  -0.00000

 Dipole moment (field-independent basis, Debye):
    X=             -0.5083    Y=              1.3608    Z=             -0.0000  Tot=              1.4526
 Quadrupole moment (field-independent basis, Debye-Ang):
   XX=            -22.4690   YY=            -18.6158   ZZ=            -22.0104
   XY=             -3.2560   XZ=             -0.0000   YZ=             -0.0000

  Exact polarizability:  34.001  -9.472  30.252   0.000  -0.000  17.927
 Approx polarizability:  29.007  -5.105  23.520   0.000  -0.000  15.522

 ******    1 imaginary frequencies (negative Signs) ******

                      1                      2                      3
                     A"                     A"                     A'
 Frequencies --   -269.2426               229.0176               341.3305
 Red. masses --      1.1389                10.5205                 8.6141
 Frc consts  --      0.0486                 0.3251                 0.5913
 IR Inten    --    124.7315                 0.7748                 4.5994

                      4                      5                      6
                     A'                     A'                     A'
 Frequencies --    451.6583               785.3965               967.2662
 Red. masses --     12.3158                12.9188                15.3946
 Frc consts  --      1.4802                 4.6952                 8.4862
 IR Inten    --    199.7296               170.7688                22.6396

                      7                      8                      9
                     A'                     A'                     A'
 Frequencies --   1371.2487              1677.3372              3778.7020
 Red. masses --      1.1334                13.2085                 1.0675
 Frc consts  --      1.2556                21.8949                 8.9809
 IR Inten    --    153.0280               140.4658                82.5404

 - Thermochemistry -
 -------------------
 Temperature   298.150 Kelvin.  Pressure   1.00000 Atm.
 Atom     1 has atomic number  1 and mass   1.00783

 Molecular mass:    62.99564 amu.
 Principal axes and moments of inertia in atomic units:
                           1         2         3
     Eigenvalues --    32.84033 360.14661 392.98694
           X            0.81015   0.58622   0.00000
           Y           -0.58622   0.81015   0.00000
           Z           -0.00000   0.00000   1.00000
 This molecule is an asymmetric top.
 Rotational symmetry number  1.
 Rotational temperatures (Kelvin)      2.63743     0.24050     0.22040
 Rotational constants (GHZ):          54.95502     5.01113     4.59237
    1 imaginary frequencies ignored.
 Zero-point vibrational energy      57432.5 (Joules/Mol)
                                   13.72669 (Kcal/Mol)
 Warning -- explicit consideration of   3 degrees of freedom as
           vibrations may cause significant error
 Vibrational temperatures:    329.51   491.10   649.84  1130.01  1391.68
          (Kelvin)           1972.92  2413.31  5436.71

 Zero-point correction=                           0.021875 (Hartree/Particle)
 Thermal correction to Energy=                    0.025993
 Thermal correction to Enthalpy=                  0.026937
 Thermal correction to Gibbs Free Energy=        -0.004247
 Sum of electronic and zero-point Energies=           -280.424860
 Sum of electronic and thermal Energies=              -280.420742
 Sum of electronic and thermal Enthalpies=            -280.419798
 Sum of electronic and thermal Free Energies=         -280.450982

                     E (Thermal)             CV                S
                      KCal/Mol        Cal/Mol-Kelvin    Cal/Mol-Kelvin
 Total                   16.311             11.954             65.633
 Electronic               0.000              0.000              0.000
 Translational            0.889              2.981             38.341
 Rotational               0.889              2.981             23.057
 Vibrational             14.533              5.993              4.235
 Vibration     1          0.652              1.797              1.887
 Vibration     2          0.721              1.593              1.206
 Vibration     3          0.810              1.357              0.791

                       ! Non-Optimized Parameters !

 1\1\GINC-N2398\Freq\RMP2-FC\Aug-CC-pVTZ\H1N1O3\CGAVINH\07-Feb-2022\1\\
 #P Geom=AllCheck Guess=TCheck SCRF=Check GenChk RMP2(FC)/Aug-CC-pVTZ F
 req\\title\\0,1\H\O,1,r1\O,2,r2,1,a1\N,3,r3,2,a2,1,d1,0\O,4,r4,3,a3,2,
 d2,0\\r1=0.96897556\r2=1.45491931\r3=1.45878406\r4=1.17072885\a1=97.59
 494903\a2=102.29752444\a3=109.06955123\d1=180.\d2=180.\\Version=ES64L-
 G16RevB.01\State=1-A'\HF=-279.5016879\MP2=-280.4467347\RMSD=1.424e-09\
 RMSF=1.685e-04\ZeroPoint=0.0218749\Thermal=0.0259927\Dipole=-0.1464885
 ,0.,-0.5523991\DipoleDeriv=0.2663684,0.,0.04829,0.,0.3555537,0.,0.0821

 Normal termination of Gaussian 16 at Mon Feb  7 12:48:49 2022.
