 Gaussian 16, Revision B.01,
 Gaussian 16:  ES64L-G16RevB.01 20-Dec-2017

 ---------------------------------------
 #p freq mp2/aug-cc-pvtz density=current
 ---------------------------------------

 -----
 title
 -----
 Symbolic Z-matrix:
 Charge =  0 Multiplicity = 1

                         Standard orientation:
 ---------------------------------------------------------------------
 Center     Atomic      Atomic             Coordinates (Angstroms)
 Number     Number       Type             X           Y           Z
 ---------------------------------------------------------------------
      1          1           0        2.241958    0.426922    0.136680
      2          8           0        1.599193   -0.282771   -0.011986
      3          8           0        0.400231    0.541404   -0.015956
      4          7           0       -0.663165   -0.456967    0.006290
      5          8           0       -1.699399    0.087848    0.005354
 ---------------------------------------------------------------------

 SCF Done:  E(RHF) =  -279.501770777     A.U. after   16 cycles
 E2 =    -0.9450764623D+00 EUMP2 =    -0.28044684723894D+03
 E2 =    -0.9450764623D+00 EUMP2 =    -0.28044684723894D+03

 The electronic state is 1-A.
 Alpha  occ. eigenvalues --  -20.69100 -20.68427 -20.66009 -15.81274  -1.62403
 Alpha  occ. eigenvalues --   -1.49581  -1.25443  -0.94808  -0.77259  -0.75939
 Alpha  occ. eigenvalues --   -0.71256  -0.67897  -0.62005  -0.58900  -0.48645
 Alpha  occ. eigenvalues --   -0.47192
 Alpha virt. eigenvalues --    0.02960   0.07165   0.08593   0.10174   0.13270
 Alpha virt. eigenvalues --    0.13486   0.14395   0.15446   0.17816   0.19412
 Alpha virt. eigenvalues --    0.19941   0.20655   0.22081   0.23538   0.23729

 Mulliken charges:
               1
     1  H    0.250112
     2  O   -0.201648
     3  O   -0.147063
     4  N    0.291932
     5  O   -0.193332
 Sum of Mulliken charges =  -0.00000

 Dipole moment (field-independent basis, Debye):
    X=              1.2068    Y=              0.7764    Z=              0.2594  Tot=              1.4583
 Quadrupole moment (field-independent basis, Debye-Ang):
   XX=            -18.0605   YY=            -23.1137   ZZ=            -21.9570
   XY=              2.7436   XZ=              0.6837   YZ=              0.2093

  Exact polarizability:  41.702   0.959  22.510   0.135   0.026  17.956
 Approx polarizability:  31.932  -1.148  20.559   0.117   0.097  15.560

 ******    1 imaginary frequencies (negative Signs) ******

                      1                      2                      3
                      A                      A                      A
 Frequencies --   -261.4274               228.3475               342.6715
 Red. masses --      1.1409                10.5941                 8.6394
 Frc consts  --      0.0459                 0.3255                 0.5977
 IR Inten    --    125.3939                 0.8408                 4.8501

                      4                      5                      6
                      A                      A                      A
 Frequencies --    452.6043               785.8910               966.4409
 Red. masses --     12.1984                12.9429                15.3483
 Frc consts  --      1.4723                 4.7098                 8.4462
 IR Inten    --    197.1734               169.8003                23.7348

                      7                      8                      9
                      A                      A                      A
 Frequencies --   1371.6775              1677.2632              3778.2585
 Red. masses --      1.1320                13.2502                 1.0676
 Frc consts  --      1.2549                21.9622                 8.9791
 IR Inten    --    150.8386               140.9606                81.8614

 - Thermochemistry -
 -------------------
 Temperature   298.150 Kelvin.  Pressure   1.00000 Atm.
 Atom     1 has atomic number  1 and mass   1.00783

 Molecular mass:    62.99564 amu.
 Principal axes and moments of inertia in atomic units:
                           1         2         3
     Eigenvalues --    32.89157 360.11089 392.82706
           X            0.99994   0.01047   0.00313
           Y           -0.01050   0.99992   0.00674
           Z           -0.00306  -0.00677   0.99997
 This molecule is an asymmetric top.
 Rotational symmetry number  1.
 Rotational temperatures (Kelvin)      2.63332     0.24052     0.22049
 Rotational constants (GHZ):          54.86942     5.01163     4.59424
    1 imaginary frequencies ignored.
 Zero-point vibrational energy      57439.6 (Joules/Mol)
                                   13.72840 (Kcal/Mol)
 Warning -- explicit consideration of   3 degrees of freedom as
           vibrations may cause significant error
 Vibrational temperatures:    328.54   493.03   651.20  1130.72  1390.49
          (Kelvin)           1973.54  2413.21  5436.07

 Zero-point correction=                           0.021878 (Hartree/Particle)
 Thermal correction to Energy=                    0.025994
 Thermal correction to Enthalpy=                  0.026938
 Thermal correction to Gibbs Free Energy=        -0.004245
 Sum of electronic and zero-point Energies=           -280.424970
 Sum of electronic and thermal Energies=              -280.420853
 Sum of electronic and thermal Enthalpies=            -280.419909
 Sum of electronic and thermal Free Energies=         -280.451092

                     E (Thermal)             CV                S
                      KCal/Mol        Cal/Mol-Kelvin    Cal/Mol-Kelvin
 Total                   16.312             11.951             65.630
 Electronic               0.000              0.000              0.000
 Translational            0.889              2.981             38.341
 Rotational               0.889              2.981             23.058
 Vibrational             14.534              5.989              4.231
 Vibration     1          0.651              1.798              1.892
 Vibration     2          0.722              1.590              1.200
 Vibration     3          0.811              1.355              0.788

                       ! Non-Optimized Parameters !

 1\1\GINC-N2124\Freq\RMP2-FC\Aug-CC-pVTZ\H1N1O3\CGAVINH\21-Feb-2022\1\\
 #p freq mp2/aug-cc-pvtz density=current\\title\\0,1\H\O,1,r1\O,2,r2,1,
 a1\N,3,r3,2,a2,1,d1,0\O,4,r4,3,a3,2,d2,0\\r1=0.96897556\r2=1.45491931\
 r3=1.45878406\r4=1.17072885\a1=97.59494903\a2=102.29752444\a3=109.0695
 5123\d1=189.81162037\d2=180.\\Version=ES64L-G16RevB.01\State=1-A\HF=-2
 79.5017708\MP2=-280.4468472\RMSD=5.085e-09\RMSF=4.579e-04\ZeroPoint=0.
 0218776\Thermal=0.025994\Dipole=-0.1465302,-0.0198475,-0.5543578\Dipol
 eDeriv=0.2658261,0.0014857,0.0480666,0.0017,0.3545674,0.0016413,0.0816

 Normal termination of Gaussian 16 at Mon Feb 21 21:04:29 2022.
