 Gaussian 16, Revision B.01,
 Gaussian 16:  ES64L-G16RevB.01 20-Dec-2017

 ---------------------------------------
 #p freq mp2/aug-cc-pvtz density=current
 ---------------------------------------

 -----
 title
 -----
 Symbolic Z-matrix:
 Charge =  0 Multiplicity = 1

                         Standard orientation:
 ---------------------------------------------------------------------
 Center     Atomic      Atomic             Coordinates (Angstroms)
 Number     Number       Type             X           Y           Z
 ---------------------------------------------------------------------
      1          1           0        2.243341    0.428485    0.122312
      2          8           0        1.599124   -0.282993   -0.010720
      3          8           0        0.400255    0.541319   -0.014309
      4          7           0       -0.663265   -0.456969    0.005654
      5          8           0       -1.699439    0.087961    0.004794
 ---------------------------------------------------------------------

 SCF Done:  E(RHF) =  -279.501754371     A.U. after   16 cycles
 E2 =    -0.9450706004D+00 EUMP2 =    -0.28044682497122D+03
 E2 =    -0.9450706004D+00 EUMP2 =    -0.28044682497122D+03

 The electronic state is 1-A.
 Alpha  occ. eigenvalues --  -20.69097 -20.68428 -20.66007 -15.81276  -1.62403
 Alpha  occ. eigenvalues --   -1.49579  -1.25442  -0.94808  -0.77263  -0.75934
 Alpha  occ. eigenvalues --   -0.71241  -0.67905  -0.62013  -0.58909  -0.48621
 Alpha  occ. eigenvalues --   -0.47203
 Alpha virt. eigenvalues --    0.02960   0.07166   0.08593   0.10174   0.13285
 Alpha virt. eigenvalues --    0.13478   0.14398   0.15448   0.17818   0.19413
 Alpha virt. eigenvalues --    0.19948   0.20651   0.22081   0.23539   0.23731

 Mulliken charges:
               1
     1  H    0.250133
     2  O   -0.201628
     3  O   -0.147083
     4  N    0.291894
     5  O   -0.193316
 Sum of Mulliken charges =  -0.00000

 Dipole moment (field-independent basis, Debye):
    X=              1.2091    Y=              0.7795    Z=              0.2322  Tot=              1.4572
 Quadrupole moment (field-independent basis, Debye-Ang):
   XX=            -18.0468   YY=            -23.1096   ZZ=            -21.9676
   XY=              2.7537   XZ=              0.6123   YZ=              0.1879

  Exact polarizability:  41.708   0.962  22.512   0.121   0.023  17.950
 Approx polarizability:  31.936  -1.145  20.563   0.105   0.087  15.552

 ******    1 imaginary frequencies (negative Signs) ******

                      1                      2                      3
                      A                      A                      A
 Frequencies --   -263.0036               228.4788               342.4081
 Red. masses --      1.1405                10.5795                 8.6338
 Frc consts  --      0.0465                 0.3254                 0.5964
 IR Inten    --    125.2631                 0.8282                 4.8016

                      4                      5                      6
                      A                      A                      A
 Frequencies --    452.4180               785.7943               966.6050
 Red. masses --     12.2213                12.9380                15.3573
 Frc consts  --      1.4738                 4.7069                 8.4540
 IR Inten    --    197.6764               169.9946                23.5156

                      7                      8                      9
                      A                      A                      A
 Frequencies --   1371.5921              1677.2778              3778.3465
 Red. masses --      1.1323                13.2419                 1.0676
 Frc consts  --      1.2550                21.9488                 8.9794
 IR Inten    --    151.2731               140.8625                81.9964

 - Thermochemistry -
 -------------------
 Temperature   298.150 Kelvin.  Pressure   1.00000 Atm.
 Atom     1 has atomic number  1 and mass   1.00783

 Molecular mass:    62.99564 amu.
 Principal axes and moments of inertia in atomic units:
                           1         2         3
     Eigenvalues --    32.88137 360.11807 392.85889
           X            0.99994   0.01052   0.00280
           Y           -0.01054   0.99993   0.00605
           Z           -0.00274  -0.00608   0.99998
 This molecule is an asymmetric top.
 Rotational symmetry number  1.
 Rotational temperatures (Kelvin)      2.63413     0.24052     0.22047
 Rotational constants (GHZ):          54.88643     5.01153     4.59387
    1 imaginary frequencies ignored.
 Zero-point vibrational energy      57438.2 (Joules/Mol)
                                   13.72806 (Kcal/Mol)
 Warning -- explicit consideration of   3 degrees of freedom as
           vibrations may cause significant error
 Vibrational temperatures:    328.73   492.65   650.93  1130.58  1390.73
          (Kelvin)           1973.42  2413.23  5436.20

 Zero-point correction=                           0.021877 (Hartree/Particle)
 Thermal correction to Energy=                    0.025994
 Thermal correction to Enthalpy=                  0.026938
 Thermal correction to Gibbs Free Energy=        -0.004245
 Sum of electronic and zero-point Energies=           -280.424948
 Sum of electronic and thermal Energies=              -280.420831
 Sum of electronic and thermal Enthalpies=            -280.419887
 Sum of electronic and thermal Free Energies=         -280.451070

                     E (Thermal)             CV                S
                      KCal/Mol        Cal/Mol-Kelvin    Cal/Mol-Kelvin
 Total                   16.311             11.951             65.630
 Electronic               0.000              0.000              0.000
 Translational            0.889              2.981             38.341
 Rotational               0.889              2.981             23.057
 Vibrational             14.534              5.990              4.232
 Vibration     1          0.651              1.798              1.891
 Vibration     2          0.722              1.591              1.201
 Vibration     3          0.811              1.356              0.788

                       ! Non-Optimized Parameters !

 1\1\GINC-N2110\Freq\RMP2-FC\Aug-CC-pVTZ\H1N1O3\CGAVINH\21-Feb-2022\1\\
 #p freq mp2/aug-cc-pvtz density=current\\title\\0,1\H\O,1,r1\O,2,r2,1,
 a1\N,3,r3,2,a2,1,d1,0\O,4,r4,3,a3,2,d2,0\\r1=0.96897556\r2=1.45491931\
 r3=1.45878406\r4=1.17072885\a1=97.59494903\a2=102.29752444\a3=109.0695
 5123\d1=188.77578004\d2=180.\\Version=ES64L-G16RevB.01\State=1-A\HF=-2
 79.5017544\MP2=-280.446825\RMSD=5.008e-09\RMSF=4.126e-04\ZeroPoint=0.0
 218771\Thermal=0.0259938\Dipole=-0.1465222,-0.0177902,-0.5539691\Dipol
 eDeriv=0.2659339,0.0013288,0.0481103,0.0015284,0.3547615,0.0014905,0.0

 Normal termination of Gaussian 16 at Mon Feb 21 21:04:02 2022.
