 Gaussian 16, Revision B.01,
 Gaussian 16:  ES64L-G16RevB.01 20-Dec-2017

 ---------------------------------------
 #p freq mp2/aug-cc-pvtz density=current
 ---------------------------------------

 -----
 title
 -----
 Symbolic Z-matrix:
 Charge =  0 Multiplicity = 1

                         Standard orientation:
 ---------------------------------------------------------------------
 Center     Atomic      Atomic             Coordinates (Angstroms)
 Number     Number       Type             X           Y           Z
 ---------------------------------------------------------------------
      1          1           0        1.550442    1.680371    0.000000
      2          8           0        1.454127    0.716194    0.000000
      3          8           0       -0.000000    0.668198    0.000000
      4          7           0       -0.261631   -0.756326   -0.000000
      5          8           0       -1.419005   -0.932653   -0.000000
 ---------------------------------------------------------------------

 SCF Done:  E(RHF) =  -279.502665792     A.U. after   14 cycles
 E2 =    -0.9440473277D+00 EUMP2 =    -0.28044671312004D+03
 E2 =    -0.9440473277D+00 EUMP2 =    -0.28044671312004D+03

 The electronic state is 1-A'.
 Alpha  occ. eigenvalues --  -20.69265 -20.68181 -20.66126 -15.81116  -1.62465
 Alpha  occ. eigenvalues --   -1.49719  -1.25756  -0.94730  -0.77363  -0.76043
 Alpha  occ. eigenvalues --   -0.71362  -0.67883  -0.61992  -0.58998  -0.48629
 Alpha  occ. eigenvalues --   -0.47291
 Alpha virt. eigenvalues --    0.02934   0.07302   0.08613   0.10183   0.13387
 Alpha virt. eigenvalues --    0.13401   0.14386   0.15433   0.17803   0.19420
 Alpha virt. eigenvalues --    0.19986   0.20769   0.22051   0.23496   0.23751

 Mulliken charges:
               1
     1  H    0.250351
     2  O   -0.200875
     3  O   -0.140323
     4  N    0.288647
     5  O   -0.197800
 Sum of Mulliken charges =  -0.00000

 Dipole moment (field-independent basis, Debye):
    X=              0.5558    Y=              1.4206    Z=              0.0000  Tot=              1.5255
 Quadrupole moment (field-independent basis, Debye-Ang):
   XX=            -22.4870   YY=            -18.6600   ZZ=            -21.9954
   XY=              3.2363   XZ=             -0.0000   YZ=             -0.0000

  Exact polarizability:  34.010   9.413  30.037   0.000   0.000  17.892
 Approx polarizability:  28.959   5.037  23.289   0.000   0.000  15.506

 ******    1 imaginary frequencies (negative Signs) ******

                      1                      2                      3
                     A"                     A"                     A'
 Frequencies --   -266.4216               224.5899               344.7720
 Red. masses --      1.1414                10.3735                 8.6392
 Frc consts  --      0.0477                 0.3083                 0.6050
 IR Inten    --    124.4670                 0.8278                 3.4843

                      4                      5                      6
                     A'                     A'                     A'
 Frequencies --    472.5748               792.7578               968.8865
 Red. masses --     12.2839                12.7869                15.3366
 Frc consts  --      1.6163                 4.7347                 8.4825
 IR Inten    --    189.1598               179.5119                23.8309

                      7                      8                      9
                     A'                     A'                     A'
 Frequencies --   1373.2448              1682.1936              3778.9289
 Red. masses --      1.1350                13.1703                 1.0675
 Frc consts  --      1.2611                21.9582                 8.9820
 IR Inten    --    154.8884               135.5330                82.3556

 - Thermochemistry -
 -------------------
 Temperature   298.150 Kelvin.  Pressure   1.00000 Atm.
 Atom     1 has atomic number  1 and mass   1.00783

 Molecular mass:    62.99564 amu.
 Principal axes and moments of inertia in atomic units:
                           1         2         3
     Eigenvalues --    32.57399 358.25066 390.82465
           X            0.81280  -0.58254   0.00000
           Y            0.58254   0.81280   0.00000
           Z            0.00000  -0.00000   1.00000
 This molecule is an asymmetric top.
 Rotational symmetry number  1.
 Rotational temperatures (Kelvin)      2.65899     0.24177     0.22162
 Rotational constants (GHZ):          55.40436     5.03765     4.61778
    1 imaginary frequencies ignored.
 Zero-point vibrational energy      57647.7 (Joules/Mol)
                                   13.77814 (Kcal/Mol)
 Warning -- explicit consideration of   3 degrees of freedom as
           vibrations may cause significant error
 Vibrational temperatures:    323.13   496.05   679.93  1140.60  1394.01
          (Kelvin)           1975.79  2420.30  5437.04

 Zero-point correction=                           0.021957 (Hartree/Particle)
 Thermal correction to Energy=                    0.026058
 Thermal correction to Enthalpy=                  0.027002
 Thermal correction to Gibbs Free Energy=        -0.004150
 Sum of electronic and zero-point Energies=           -280.424756
 Sum of electronic and thermal Energies=              -280.420656
 Sum of electronic and thermal Enthalpies=            -280.419711
 Sum of electronic and thermal Free Energies=         -280.450864

                     E (Thermal)             CV                S
                      KCal/Mol        Cal/Mol-Kelvin    Cal/Mol-Kelvin
 Total                   16.351             11.892             65.565
 Electronic               0.000              0.000              0.000
 Translational            0.889              2.981             38.341
 Rotational               0.889              2.981             23.038
 Vibrational             14.574              5.931              4.187
 Vibration     1          0.649              1.804              1.922
 Vibration     2          0.723              1.586              1.190
 Vibration     3          0.829              1.311              0.730

                       ! Non-Optimized Parameters !

 1\1\GINC-N2108\Freq\RMP2-FC\Aug-CC-pVTZ\H1N1O3\CGAVINH\21-Feb-2022\1\\
 #p freq mp2/aug-cc-pvtz density=current\\title\\0,1\H\O,1,r1\O,2,r2,1,
 a1\N,3,r3,2,a2,1,d1,0\O,4,r4,3,a3,2,d2,0\\r1=0.96897556\r2=1.45491931\
 r3=1.4483506\r4=1.17072885\a1=97.59494903\a2=102.29752444\a3=109.06955
 123\d1=180.\d2=180.\\Version=ES64L-G16RevB.01\State=1-A'\HF=-279.50266
 58\MP2=-280.4467131\RMSD=3.652e-09\RMSF=1.283e-03\ZeroPoint=0.0219569\
 Thermal=0.0260575\Dipole=-0.1620452,0.,-0.5778898\DipoleDeriv=0.267264
 6,0.,0.0492698,0.,0.3558603,0.,0.0821219,0.,0.2754916,-0.3262568,0.,-0

 Normal termination of Gaussian 16 at Mon Feb 21 20:23:54 2022.
