 Gaussian 16, Revision B.01,
 Gaussian 16:  ES64L-G16RevB.01 20-Dec-2017

 ---------------------------------------
 #p freq mp2/aug-cc-pvtz density=current
 ---------------------------------------

 -----
 title
 -----
 Symbolic Z-matrix:
 Charge =  0 Multiplicity = 1

                         Standard orientation:
 ---------------------------------------------------------------------
 Center     Atomic      Atomic             Coordinates (Angstroms)
 Number     Number       Type             X           Y           Z
 ---------------------------------------------------------------------
      1          1           0        1.592909    1.679238    0.000000
      2          8           0        1.454157    0.720248    0.000000
      3          8           0        0.000000    0.673168    0.000000
      4          7           0       -0.264419   -0.761452   -0.000000
      5          8           0       -1.421904   -0.937050   -0.000000
 ---------------------------------------------------------------------

 SCF Done:  E(RHF) =  -279.501790998     A.U. after   14 cycles
 E2 =    -0.9447356784D+00 EUMP2 =    -0.28044652667650D+03
 E2 =    -0.9447356784D+00 EUMP2 =    -0.28044652667650D+03

 The electronic state is 1-A'.
 Alpha  occ. eigenvalues --  -20.69124 -20.68439 -20.65889 -15.81294  -1.62397
 Alpha  occ. eigenvalues --   -1.49424  -1.25475  -0.94801  -0.77164  -0.76076
 Alpha  occ. eigenvalues --   -0.71156  -0.67996  -0.62001  -0.58702  -0.48491
 Alpha  occ. eigenvalues --   -0.47250
 Alpha virt. eigenvalues --    0.02936   0.07174   0.08595   0.10180   0.13370
 Alpha virt. eigenvalues --    0.13408   0.14412   0.15441   0.17833   0.19442
 Alpha virt. eigenvalues --    0.20002   0.20623   0.22090   0.23538   0.23740

 Mulliken charges:
               1
     1  H    0.247185
     2  O   -0.201830
     3  O   -0.145149
     4  N    0.292751
     5  O   -0.192957
 Sum of Mulliken charges =  -0.00000

 Dipole moment (field-independent basis, Debye):
    X=              0.5646    Y=              1.3621    Z=              0.0000  Tot=              1.4745
 Quadrupole moment (field-independent basis, Debye-Ang):
   XX=            -22.2547   YY=            -18.6512   ZZ=            -22.0146
   XY=              3.3994   XZ=              0.0000   YZ=             -0.0000

  Exact polarizability:  34.149   9.554  30.250   0.000   0.000  17.950
 Approx polarizability:  29.035   5.172  23.491   0.000   0.000  15.535

 ******    1 imaginary frequencies (negative Signs) ******

                      1                      2                      3
                     A"                     A"                     A'
 Frequencies --   -300.8229               235.9229               344.9064
 Red. masses --      1.1721                 8.2590                 8.4931
 Frc consts  --      0.0625                 0.2708                 0.5953
 IR Inten    --    125.1192                 2.8342                 3.7175

                      4                      5                      6
                     A'                     A'                     A'
 Frequencies --    449.9521               783.1671               962.8335
 Red. masses --     12.0842                12.9162                14.5047
 Frc consts  --      1.4415                 4.6676                 7.9225
 IR Inten    --    202.0638               172.2224                21.5326

                      7                      8                      9
                     A'                     A'                     A'
 Frequencies --   1355.2229              1676.7883              3779.4393
 Red. masses --      1.1412                13.4781                 1.0682
 Frc consts  --      1.2349                22.3273                 8.9900
 IR Inten    --    143.8229               143.9346                85.9093

 - Thermochemistry -
 -------------------
 Temperature   298.150 Kelvin.  Pressure   1.00000 Atm.
 Atom     1 has atomic number  1 and mass   1.00783

 Molecular mass:    62.99564 amu.
 Principal axes and moments of inertia in atomic units:
                           1         2         3
     Eigenvalues --    32.74713 360.65775 393.40488
           X            0.81162  -0.58418   0.00000
           Y            0.58418   0.81162   0.00000
           Z            0.00000  -0.00000   1.00000
 This molecule is an asymmetric top.
 Rotational symmetry number  1.
 Rotational temperatures (Kelvin)      2.64493     0.24016     0.22016
 Rotational constants (GHZ):          55.11143     5.00403     4.58749
    1 imaginary frequencies ignored.
 Zero-point vibrational energy      57350.4 (Joules/Mol)
                                   13.70707 (Kcal/Mol)
 Warning -- explicit consideration of   3 degrees of freedom as
           vibrations may cause significant error
 Vibrational temperatures:    339.44   496.24   647.38  1126.80  1385.30
          (Kelvin)           1949.86  2412.52  5437.77

 Zero-point correction=                           0.021844 (Hartree/Particle)
 Thermal correction to Energy=                    0.025951
 Thermal correction to Enthalpy=                  0.026895
 Thermal correction to Gibbs Free Energy=        -0.004261
 Sum of electronic and zero-point Energies=           -280.424683
 Sum of electronic and thermal Energies=              -280.420576
 Sum of electronic and thermal Enthalpies=            -280.419632
 Sum of electronic and thermal Free Energies=         -280.450788

                     E (Thermal)             CV                S
                      KCal/Mol        Cal/Mol-Kelvin    Cal/Mol-Kelvin
 Total                   16.284             11.956             65.573
 Electronic               0.000              0.000              0.000
 Translational            0.889              2.981             38.341
 Rotational               0.889              2.981             23.056
 Vibrational             14.507              5.994              4.176
 Vibration     1          0.655              1.786              1.833
 Vibration     2          0.723              1.586              1.189
 Vibration     3          0.809              1.361              0.796

                       ! Non-Optimized Parameters !

 1\1\GINC-N2128\Freq\RMP2-FC\Aug-CC-pVTZ\H1N1O3\CGAVINH\21-Feb-2022\1\\
 #p freq mp2/aug-cc-pvtz density=current\\title\\0,1\H\O,1,r1\O,2,r2,1,
 a1\N,3,r3,2,a2,1,d1,0\O,4,r4,3,a3,2,d2,0\\r1=0.96897556\r2=1.45491931\
 r3=1.45878406\r4=1.17072885\a1=100.08707026\a2=102.29752444\a3=109.069
 55123\d1=180.\d2=180.\\Version=ES64L-G16RevB.01\State=1-A'\HF=-279.501
 791\MP2=-280.4465267\RMSD=3.818e-09\RMSF=2.198e-03\ZeroPoint=0.0218436
 \Thermal=0.0259507\Dipole=-0.1431125,0.,-0.5621844\DipoleDeriv=0.25786
 26,0.,0.0391531,0.,0.358596,0.,0.0869549,0.,0.280252,-0.3110392,0.,-0.

 Normal termination of Gaussian 16 at Mon Feb 21 20:38:38 2022.
