 Gaussian 16, Revision B.01,
 Gaussian 16:  ES64L-G16RevB.01 20-Dec-2017

 ---------------------------------------
 #p freq mp2/aug-cc-pvtz density=current
 ---------------------------------------

 -----
 title
 -----
 Symbolic Z-matrix:
 Charge =  0 Multiplicity = 1

                         Standard orientation:
 ---------------------------------------------------------------------
 Center     Atomic      Atomic             Coordinates (Angstroms)
 Number     Number       Type             X           Y           Z
 ---------------------------------------------------------------------
      1          1           0        1.552059    1.682402    0.000000
      2          8           0        1.454202    0.718381    0.000000
      3          8           0        0.000000    0.672711    0.000000
      4          7           0       -0.265810   -0.761652    0.000000
      5          8           0       -1.415626   -0.934946    0.000000
 ---------------------------------------------------------------------

 SCF Done:  E(RHF) =  -279.502938108     A.U. after   14 cycles
 E2 =    -0.9436978543D+00 EUMP2 =    -0.28044663596269D+03
 E2 =    -0.9436978543D+00 EUMP2 =    -0.28044663596269D+03

 The electronic state is 1-A'.
 Alpha  occ. eigenvalues --  -20.68901 -20.68463 -20.65896 -15.81168  -1.63057
 Alpha  occ. eigenvalues --   -1.49580  -1.25361  -0.94699  -0.77375  -0.76129
 Alpha  occ. eigenvalues --   -0.71350  -0.68029  -0.62201  -0.58890  -0.48455
 Alpha  occ. eigenvalues --   -0.47094
 Alpha virt. eigenvalues --    0.02984   0.07412   0.08581   0.10172   0.13381
 Alpha virt. eigenvalues --    0.13406   0.14425   0.15473   0.17840   0.19408
 Alpha virt. eigenvalues --    0.20011   0.20637   0.22107   0.23610   0.23744

 Mulliken charges:
               1
     1  H    0.249990
     2  O   -0.202234
     3  O   -0.148927
     4  N    0.292547
     5  O   -0.191376
 Sum of Mulliken charges =   0.00000

 Dipole moment (field-independent basis, Debye):
    X=              0.4779    Y=              1.3256    Z=              0.0000  Tot=              1.4091
 Quadrupole moment (field-independent basis, Debye-Ang):
   XX=            -22.4268   YY=            -18.6158   ZZ=            -21.9972
   XY=              3.2831   XZ=              0.0000   YZ=             -0.0000

  Exact polarizability:  33.918   9.386  30.147   0.000   0.000  17.913
 Approx polarizability:  28.835   5.043  23.453  -0.000  -0.000  15.488

 ******    1 imaginary frequencies (negative Signs) ******

                      1                      2                      3
                     A"                     A"                     A'
 Frequencies --   -268.1498               199.4344               334.6024
 Red. masses --      1.1488                 9.7412                 8.7103
 Frc consts  --      0.0487                 0.2283                 0.5746
 IR Inten    --    124.1339                 1.3541                 3.0126

                      4                      5                      6
                     A'                     A'                     A'
 Frequencies --    456.1855               784.8399               968.1174
 Red. masses --     12.2086                12.7398                15.4008
 Frc consts  --      1.4969                 4.6235                 8.5045
 IR Inten    --    200.5923               171.1354                21.5748

                      7                      8                      9
                     A'                     A'                     A'
 Frequencies --   1371.8257              1728.9200              3778.6275
 Red. masses --      1.1304                13.7394                 1.0675
 Frc consts  --      1.2534                24.1974                 8.9806
 IR Inten    --    149.2293               159.4637                81.9360

 - Thermochemistry -
 -------------------
 Temperature   298.150 Kelvin.  Pressure   1.00000 Atm.
 Atom     1 has atomic number  1 and mass   1.00783

 Molecular mass:    62.99564 amu.
 Principal axes and moments of inertia in atomic units:
                           1         2         3
     Eigenvalues --    32.80845 358.80740 391.61585
           X            0.81119  -0.58479   0.00000
           Y            0.58479   0.81119   0.00000
           Z            0.00000   0.00000   1.00000
 This molecule is an asymmetric top.
 Rotational symmetry number  1.
 Rotational temperatures (Kelvin)      2.63999     0.24139     0.22117
 Rotational constants (GHZ):          55.00843     5.02983     4.60845
    1 imaginary frequencies ignored.
 Zero-point vibrational energy      57555.6 (Joules/Mol)
                                   13.75613 (Kcal/Mol)
 Warning -- explicit consideration of   3 degrees of freedom as
           vibrations may cause significant error
 Vibrational temperatures:    286.94   481.42   656.35  1129.21  1392.91
          (Kelvin)           1973.75  2487.53  5436.60

 Zero-point correction=                           0.021922 (Hartree/Particle)
 Thermal correction to Energy=                    0.026088
 Thermal correction to Enthalpy=                  0.027032
 Thermal correction to Gibbs Free Energy=        -0.004276
 Sum of electronic and zero-point Energies=           -280.424714
 Sum of electronic and thermal Energies=              -280.420548
 Sum of electronic and thermal Enthalpies=            -280.419604
 Sum of electronic and thermal Free Energies=         -280.450912

                     E (Thermal)             CV                S
                      KCal/Mol        Cal/Mol-Kelvin    Cal/Mol-Kelvin
 Total                   16.370             11.995             65.893
 Electronic               0.000              0.000              0.000
 Translational            0.889              2.981             38.341
 Rotational               0.889              2.981             23.048
 Vibrational             14.593              6.033              4.504
 Vibration     1          0.638              1.841              2.138
 Vibration     2          0.716              1.606              1.238
 Vibration     3          0.814              1.347              0.777

                       ! Non-Optimized Parameters !

 1\1\GINC-N2110\Freq\RMP2-FC\Aug-CC-pVTZ\H1N1O3\CGAVINH\21-Feb-2022\1\\
 #p freq mp2/aug-cc-pvtz density=current\\title\\0,1\H\O,1,r1\O,2,r2,1,
 a1\N,3,r3,2,a2,1,d1,0\O,4,r4,3,a3,2,d2,0\\r1=0.96897556\r2=1.45491931\
 r3=1.45878406\r4=1.16280128\a1=97.59494903\a2=102.29752444\a3=109.0695
 5123\d1=180.\d2=180.\\Version=ES64L-G16RevB.01\State=1-A'\HF=-279.5029
 381\MP2=-280.446636\RMSD=3.581e-09\RMSF=4.559e-03\ZeroPoint=0.0219218\
 Thermal=0.026088\Dipole=-0.1344036,0.,-0.537838\DipoleDeriv=0.2663426,
 0.,0.0481642,0.,0.3552885,0.,0.0816179,0.,0.2746491,-0.3265979,0.,-0.2

 Normal termination of Gaussian 16 at Mon Feb 21 20:32:56 2022.
