 Gaussian 16, Revision B.01,
 Gaussian 16:  ES64L-G16RevB.01 20-Dec-2017

 ---------------------------------------
 #p freq mp2/aug-cc-pvtz density=current
 ---------------------------------------

 -----
 title
 -----
 Symbolic Z-matrix:
 Charge =  0 Multiplicity = 1

                         Standard orientation:
 ---------------------------------------------------------------------
 Center     Atomic      Atomic             Coordinates (Angstroms)
 Number     Number       Type             X           Y           Z
 ---------------------------------------------------------------------
      1          1           0        1.551788    1.673495    0.000000
      2          8           0        1.454190    0.709447   -0.000000
      3          8           0       -0.000000    0.663389    0.000000
      4          7           0       -0.261630   -0.750526   -0.000000
      5          8           0       -1.419238   -0.925312    0.000000
 ---------------------------------------------------------------------

 SCF Done:  E(RHF) =  -279.503582843     A.U. after   14 cycles
 E2 =    -0.9430592080D+00 EUMP2 =    -0.28044664205125D+03
 E2 =    -0.9430592080D+00 EUMP2 =    -0.28044664205125D+03

 The electronic state is 1-A'.
 Alpha  occ. eigenvalues --  -20.69441 -20.67931 -20.66253 -15.80950  -1.62545
 Alpha  occ. eigenvalues --   -1.49857  -1.26072  -0.94657  -0.77449  -0.76173
 Alpha  occ. eigenvalues --   -0.71555  -0.67829  -0.61935  -0.59050  -0.48732
 Alpha  occ. eigenvalues --   -0.47326
 Alpha virt. eigenvalues --    0.02905   0.07437   0.08631   0.10194   0.13377
 Alpha virt. eigenvalues --    0.13405   0.14366   0.15412   0.17780   0.19420
 Alpha virt. eigenvalues --    0.19992   0.20891   0.22018   0.23449   0.23764

 Mulliken charges:
               1
     1  H    0.250429
     2  O   -0.200164
     3  O   -0.133421
     4  N    0.285500
     5  O   -0.202344
 Sum of Mulliken charges =  -0.00000

 Dipole moment (field-independent basis, Debye):
    X=              0.6037    Y=              1.4799    Z=              0.0000  Tot=              1.5983
 Quadrupole moment (field-independent basis, Debye-Ang):
   XX=            -22.5051   YY=            -18.7038   ZZ=            -21.9803
   XY=              3.2165   XZ=              0.0000   YZ=             -0.0000

  Exact polarizability:  34.020   9.354  29.824  -0.000   0.000  17.858
 Approx polarizability:  28.913   4.971  23.065  -0.000   0.000  15.490

 ******    1 imaginary frequencies (negative Signs) ******

                      1                      2                      3
                     A"                     A"                     A'
 Frequencies --   -263.6053               220.0366               348.1335
 Red. masses --      1.1441                10.2171                 8.6579
 Frc consts  --      0.0468                 0.2915                 0.6182
 IR Inten    --    124.1869                 0.8882                 2.7350

                      4                      5                      6
                     A'                     A'                     A'
 Frequencies --    493.9049               801.1962               970.4702
 Red. masses --     12.2779                12.6261                15.2722
 Frc consts  --      1.7647                 4.7752                 8.4746
 IR Inten    --    176.1164               189.2206                25.1717

                      7                      8                      9
                     A'                     A'                     A'
 Frequencies --   1375.2763              1687.2132              3779.1471
 Red. masses --      1.1367                13.1360                 1.0675
 Frc consts  --      1.2667                22.0320                 8.9829
 IR Inten    --    156.7781               130.7931                82.1505

 - Thermochemistry -
 -------------------
 Temperature   298.150 Kelvin.  Pressure   1.00000 Atm.
 Atom     1 has atomic number  1 and mass   1.00783

 Molecular mass:    62.99564 amu.
 Principal axes and moments of inertia in atomic units:
                           1         2         3
     Eigenvalues --    32.30678 356.36781 388.67458
           X            0.81545  -0.57883   0.00000
           Y            0.57883   0.81545   0.00000
           Z            0.00000  -0.00000   1.00000
 This molecule is an asymmetric top.
 Rotational symmetry number  1.
 Rotational temperatures (Kelvin)      2.68098     0.24305     0.22284
 Rotational constants (GHZ):          55.86262     5.06427     4.64332
    1 imaginary frequencies ignored.
 Zero-point vibrational energy      57871.6 (Joules/Mol)
                                   13.83165 (Kcal/Mol)
 Warning -- explicit consideration of   3 degrees of freedom as
           vibrations may cause significant error
 Vibrational temperatures:    316.58   500.89   710.62  1152.74  1396.29
          (Kelvin)           1978.72  2427.52  5437.35

 Zero-point correction=                           0.022042 (Hartree/Particle)
 Thermal correction to Energy=                    0.026126
 Thermal correction to Enthalpy=                  0.027071
 Thermal correction to Gibbs Free Energy=        -0.004052
 Sum of electronic and zero-point Energies=           -280.424600
 Sum of electronic and thermal Energies=              -280.420516
 Sum of electronic and thermal Enthalpies=            -280.419571
 Sum of electronic and thermal Free Energies=         -280.450694

                     E (Thermal)             CV                S
                      KCal/Mol        Cal/Mol-Kelvin    Cal/Mol-Kelvin
 Total                   16.395             11.828             65.503
 Electronic               0.000              0.000              0.000
 Translational            0.889              2.981             38.341
 Rotational               0.889              2.981             23.019
 Vibrational             14.617              5.866              4.144
 Vibration     1          0.647              1.811              1.959
 Vibration     2          0.726              1.579              1.175
 Vibration     3          0.850              1.264              0.674

                       ! Non-Optimized Parameters !

 1\1\GINC-N2110\Freq\RMP2-FC\Aug-CC-pVTZ\H1N1O3\CGAVINH\21-Feb-2022\1\\
 #p freq mp2/aug-cc-pvtz density=current\\title\\0,1\H\O,1,r1\O,2,r2,1,
 a1\N,3,r3,2,a2,1,d1,0\O,4,r4,3,a3,2,d2,0\\r1=0.96897556\r2=1.45491931\
 r3=1.43791713\r4=1.17072885\a1=97.59494903\a2=102.29752444\a3=109.0695
 5123\d1=180.\d2=180.\\Version=ES64L-G16RevB.01\State=1-A'\HF=-279.5035
 828\MP2=-280.4466421\RMSD=3.523e-09\RMSF=2.481e-03\ZeroPoint=0.0220421
 \Thermal=0.0261265\Dipole=-0.1776491,0.,-0.6032016\DipoleDeriv=0.26814
 92,0.,0.0502391,0.,0.3561641,0.,0.0820819,0.,0.2753643,-0.3245414,0.,-

 Normal termination of Gaussian 16 at Mon Feb 21 20:24:04 2022.
