 Gaussian 16, Revision B.01,
 Gaussian 16:  ES64L-G16RevB.01 20-Dec-2017

 ---------------------------------------
 #p freq mp2/aug-cc-pvtz density=current
 ---------------------------------------

 -----
 title
 -----
 Symbolic Z-matrix:
 Charge =  0 Multiplicity = 1

                         Standard orientation:
 ---------------------------------------------------------------------
 Center     Atomic      Atomic             Coordinates (Angstroms)
 Number     Number       Type             X           Y           Z
 ---------------------------------------------------------------------
      1          1           0        1.517428    1.722362    0.000000
      2          8           0        1.451862    0.755607    0.000000
      3          8           0       -0.000000    0.661337    0.000000
      4          7           0       -0.258551   -0.774352   -0.000000
      5          8           0       -1.415308   -0.954682   -0.000000
 ---------------------------------------------------------------------

 SCF Done:  E(RHF) =  -279.501685266     A.U. after   14 cycles
 E2 =    -0.9449368849D+00 EUMP2 =    -0.28044662215040D+03
 E2 =    -0.9449368849D+00 EUMP2 =    -0.28044662215040D+03

 The electronic state is 1-A'.
 Alpha  occ. eigenvalues --  -20.69039 -20.68467 -20.66053 -15.81334  -1.62398
 Alpha  occ. eigenvalues --   -1.49528  -1.25517  -0.94777  -0.77156  -0.75983
 Alpha  occ. eigenvalues --   -0.71155  -0.68177  -0.62088  -0.58820  -0.48508
 Alpha  occ. eigenvalues --   -0.47217
 Alpha virt. eigenvalues --    0.02963   0.07148   0.08597   0.10215   0.13376
 Alpha virt. eigenvalues --    0.13378   0.14387   0.15397   0.17832   0.19433
 Alpha virt. eigenvalues --    0.19998   0.20609   0.22065   0.23520   0.23725

 Mulliken charges:
               1
     1  H    0.252433
     2  O   -0.204873
     3  O   -0.144795
     4  N    0.288918
     5  O   -0.191683
 Sum of Mulliken charges =  -0.00000

 Dipole moment (field-independent basis, Debye):
    X=              0.4667    Y=              1.3726    Z=              0.0000  Tot=              1.4498
 Quadrupole moment (field-independent basis, Debye-Ang):
   XX=            -22.6403   YY=            -18.4510   ZZ=            -22.0135
   XY=              3.1958   XZ=             -0.0000   YZ=             -0.0000

  Exact polarizability:  33.974   9.690  30.582   0.000   0.000  17.947
 Approx polarizability:  28.985   5.311  23.630   0.000   0.000  15.529

 ******    1 imaginary frequencies (negative Signs) ******

                      1                      2                      3
                     A"                     A"                     A'
 Frequencies --   -279.5939               232.4537               335.6822
 Red. masses --      1.1405                10.6204                 8.8387
 Frc consts  --      0.0525                 0.3381                 0.5868
 IR Inten    --    124.5229                 0.7862                 1.6431

                      4                      5                      6
                     A'                     A'                     A'
 Frequencies --    439.8380               784.4412               967.7737
 Red. masses --     11.7802                12.7330                15.2518
 Frc consts  --      1.3427                 4.6164                 8.4162
 IR Inten    --    202.3808               172.6883                24.2561

                      7                      8                      9
                     A'                     A'                     A'
 Frequencies --   1371.6876              1676.3959              3778.6991
 Red. masses --      1.1359                13.2524                 1.0676
 Frc consts  --      1.2593                21.9431                 8.9815
 IR Inten    --    155.0329               140.1295                85.4939

 - Thermochemistry -
 -------------------
 Temperature   298.150 Kelvin.  Pressure   1.00000 Atm.
 Atom     1 has atomic number  1 and mass   1.00783

 Molecular mass:    62.99564 amu.
 Principal axes and moments of inertia in atomic units:
                           1         2         3
     Eigenvalues --    32.01463 364.44960 396.46423
           X            0.80290  -0.59612   0.00000
           Y            0.59612   0.80290   0.00000
           Z            0.00000  -0.00000   1.00000
 This molecule is an asymmetric top.
 Rotational symmetry number  1.
 Rotational temperatures (Kelvin)      2.70545     0.23766     0.21847
 Rotational constants (GHZ):          56.37239     4.95196     4.55209
    1 imaginary frequencies ignored.
 Zero-point vibrational energy      57342.8 (Joules/Mol)
                                   13.70526 (Kcal/Mol)
 Warning -- explicit consideration of   3 degrees of freedom as
           vibrations may cause significant error
 Vibrational temperatures:    334.45   482.97   632.83  1128.64  1392.41
          (Kelvin)           1973.55  2411.96  5436.71

 Zero-point correction=                           0.021841 (Hartree/Particle)
 Thermal correction to Energy=                    0.025970
 Thermal correction to Enthalpy=                  0.026914
 Thermal correction to Gibbs Free Energy=        -0.004285
 Sum of electronic and zero-point Energies=           -280.424781
 Sum of electronic and thermal Energies=              -280.420652
 Sum of electronic and thermal Enthalpies=            -280.419708
 Sum of electronic and thermal Free Energies=         -280.450907

                     E (Thermal)             CV                S
                      KCal/Mol        Cal/Mol-Kelvin    Cal/Mol-Kelvin
 Total                   16.297             11.987             65.665
 Electronic               0.000              0.000              0.000
 Translational            0.889              2.981             38.341
 Rotational               0.889              2.981             23.052
 Vibrational             14.519              6.026              4.272
 Vibration     1          0.653              1.791              1.860
 Vibration     2          0.717              1.604              1.233
 Vibration     3          0.800              1.383              0.827

                       ! Non-Optimized Parameters !

 1\1\GINC-N2124\Freq\RMP2-FC\Aug-CC-pVTZ\H1N1O3\CGAVINH\21-Feb-2022\1\\
 #p freq mp2/aug-cc-pvtz density=current\\title\\0,1\H\O,1,r1\O,2,r2,1,
 a1\N,3,r3,2,a2,1,d1,0\O,4,r4,3,a3,2,d2,0\\r1=0.96897556\r2=1.45491931\
 r3=1.45878406\r4=1.17072885\a1=97.59494903\a2=103.92392965\a3=109.0695
 5123\d1=180.\d2=180.\\Version=ES64L-G16RevB.01\State=1-A'\HF=-279.5016
 853\MP2=-280.4466222\RMSD=3.807e-09\RMSF=1.699e-03\ZeroPoint=0.0218407
 \Thermal=0.0259703\Dipole=-0.1466681,0.,-0.5512112\DipoleDeriv=0.26424
 98,0.,0.0462549,0.,0.3556554,0.,0.0861185,0.,0.2791566,-0.3402207,0.,-

 Normal termination of Gaussian 16 at Mon Feb 21 20:46:36 2022.
