 Gaussian 16, Revision B.01,
 Gaussian 16:  ES64L-G16RevB.01 20-Dec-2017

 ---------------------------------------
 #p freq mp2/aug-cc-pvtz density=current
 ---------------------------------------

 -----
 title
 -----
 Symbolic Z-matrix:
 Charge =  0 Multiplicity = 1

                         Standard orientation:
 ---------------------------------------------------------------------
 Center     Atomic      Atomic             Coordinates (Angstroms)
 Number     Number       Type             X           Y           Z
 ---------------------------------------------------------------------
      1          1           0        1.507625    1.692982   -0.000000
      2          8           0        1.453969    0.725493   -0.000000
      3          8           0        0.000000    0.672914    0.000000
      4          7           0       -0.258992   -0.762696   -0.000000
      5          8           0       -1.415804   -0.942670    0.000000
 ---------------------------------------------------------------------

 SCF Done:  E(RHF) =  -279.501160066     A.U. after   14 cycles
 E2 =    -0.9453955541D+00 EUMP2 =    -0.28044655561972D+03
 E2 =    -0.9453955541D+00 EUMP2 =    -0.28044655561972D+03

 The electronic state is 1-A'.
 Alpha  occ. eigenvalues --  -20.69064 -20.68427 -20.66087 -15.81279  -1.62415
 Alpha  occ. eigenvalues --   -1.49723  -1.25405  -0.94821  -0.77401  -0.75766
 Alpha  occ. eigenvalues --   -0.71207  -0.67869  -0.62088  -0.59159  -0.48552
 Alpha  occ. eigenvalues --   -0.47254
 Alpha virt. eigenvalues --    0.02990   0.07157   0.08592   0.10163   0.13383
 Alpha virt. eigenvalues --    0.13409   0.14413   0.15466   0.17818   0.19393
 Alpha virt. eigenvalues --    0.19960   0.20641   0.22068   0.23531   0.23735

 Mulliken charges:
               1
     1  H    0.253667
     2  O   -0.201945
     3  O   -0.149063
     4  N    0.290797
     5  O   -0.193455
 Sum of Mulliken charges =  -0.00000

 Dipole moment (field-independent basis, Debye):
    X=              0.4534    Y=              1.3556    Z=             -0.0000  Tot=              1.4294
 Quadrupole moment (field-independent basis, Debye-Ang):
   XX=            -22.6635   YY=            -18.5943   ZZ=            -22.0063
   XY=              3.1146   XZ=              0.0000   YZ=              0.0000

  Exact polarizability:  33.872   9.396  30.250  -0.000  -0.000  17.906
 Approx polarizability:  28.994   5.045  23.544  -0.000   0.000  15.510

 ******    1 imaginary frequencies (negative Signs) ******

                      1                      2                      3
                     A"                     A"                     A'
 Frequencies --   -254.4103               225.3676               337.3009
 Red. masses --      1.1130                13.5984                 8.7348
 Frc consts  --      0.0424                 0.4069                 0.5855
 IR Inten    --    123.2759                 0.0202                 5.6176

                      4                      5                      6
                     A'                     A'                     A'
 Frequencies --    453.2137               787.4448               970.3666
 Red. masses --     12.5375                12.9152                15.8107
 Frc consts  --      1.5173                 4.7184                 8.7715
 IR Inten    --    197.6175               169.1707                24.3148

                      7                      8                      9
                     A'                     A'                     A'
 Frequencies --   1385.5563              1677.8711              3777.8737
 Red. masses --      1.1292                12.9121                 1.0669
 Frc consts  --      1.2772                21.4172                 8.9715
 IR Inten    --    162.5917               136.7770                79.7883

 - Thermochemistry -
 -------------------
 Temperature   298.150 Kelvin.  Pressure   1.00000 Atm.
 Atom     1 has atomic number  1 and mass   1.00783

 Molecular mass:    62.99564 amu.
 Principal axes and moments of inertia in atomic units:
                           1         2         3
     Eigenvalues --    32.92889 359.65304 392.58193
           X            0.80879  -0.58810   0.00000
           Y            0.58810   0.80879   0.00000
           Z           -0.00000   0.00000   1.00000
 This molecule is an asymmetric top.
 Rotational symmetry number  1.
 Rotational temperatures (Kelvin)      2.63033     0.24083     0.22063
 Rotational constants (GHZ):          54.80723     5.01801     4.59711
    1 imaginary frequencies ignored.
 Zero-point vibrational energy      57510.4 (Joules/Mol)
                                   13.74532 (Kcal/Mol)
 Warning -- explicit consideration of   3 degrees of freedom as
           vibrations may cause significant error
 Vibrational temperatures:    324.25   485.30   652.07  1132.96  1396.14
          (Kelvin)           1993.51  2414.08  5435.52

 Zero-point correction=                           0.021905 (Hartree/Particle)
 Thermal correction to Energy=                    0.026029
 Thermal correction to Enthalpy=                  0.026974
 Thermal correction to Gibbs Free Energy=        -0.004229
 Sum of electronic and zero-point Energies=           -280.424651
 Sum of electronic and thermal Energies=              -280.420526
 Sum of electronic and thermal Enthalpies=            -280.419582
 Sum of electronic and thermal Free Energies=         -280.450785

                     E (Thermal)             CV                S
                      KCal/Mol        Cal/Mol-Kelvin    Cal/Mol-Kelvin
 Total                   16.334             11.952             65.672
 Electronic               0.000              0.000              0.000
 Translational            0.889              2.981             38.341
 Rotational               0.889              2.981             23.057
 Vibrational             14.556              5.990              4.274
 Vibration     1          0.650              1.802              1.916
 Vibration     2          0.718              1.601              1.225
 Vibration     3          0.812              1.354              0.786

                       ! Non-Optimized Parameters !

 1\1\GINC-N2126\Freq\RMP2-FC\Aug-CC-pVTZ\H1N1O3\CGAVINH\21-Feb-2022\1\\
 #p freq mp2/aug-cc-pvtz density=current\\title\\0,1\H\O,1,r1\O,2,r2,1,
 a1\N,3,r3,2,a2,1,d1,0\O,4,r4,3,a3,2,d2,0\\r1=0.96897556\r2=1.45491931\
 r3=1.45878406\r4=1.17072885\a1=95.2453546\a2=102.29752444\a3=109.06955
 123\d1=180.\d2=180.\\Version=ES64L-G16RevB.01\State=1-A'\HF=-279.50116
 01\MP2=-280.4465556\RMSD=3.768e-09\RMSF=2.027e-03\ZeroPoint=0.0219046\
 Thermal=0.0260294\Dipole=-0.1485933,0.,-0.5423991\DipoleDeriv=0.275771
 6,0.,0.0567886,0.,0.3527636,0.,0.0776797,0.,0.2715153,-0.3445501,0.,-0

 Normal termination of Gaussian 16 at Mon Feb 21 20:42:31 2022.
