 Gaussian 16, Revision B.01,
 Gaussian 16:  ES64L-G16RevB.01 20-Dec-2017

 ---------------------------------------
 #p freq mp2/aug-cc-pvtz density=current
 ---------------------------------------

 -----
 title
 -----
 Symbolic Z-matrix:
 Charge =  0 Multiplicity = 1

                         Standard orientation:
 ---------------------------------------------------------------------
 Center     Atomic      Atomic             Coordinates (Angstroms)
 Number     Number       Type             X           Y           Z
 ---------------------------------------------------------------------
      1          1           0        1.562654    1.681247    0.000000
      2          8           0        1.463770    0.717330    0.000000
      3          8           0        0.000000    0.672922   -0.000000
      4          7           0       -0.267339   -0.761156   -0.000000
      5          8           0       -1.425179   -0.934397   -0.000000
 ---------------------------------------------------------------------

 SCF Done:  E(RHF) =  -279.500856261     A.U. after   14 cycles
 E2 =    -0.9458293308D+00 EUMP2 =    -0.28044668559152D+03
 E2 =    -0.9458293308D+00 EUMP2 =    -0.28044668559152D+03

 The electronic state is 1-A'.
 Alpha  occ. eigenvalues --  -20.69142 -20.68446 -20.66080 -15.81302  -1.62376
 Alpha  occ. eigenvalues --   -1.49200  -1.25610  -0.94794  -0.77179  -0.75842
 Alpha  occ. eigenvalues --   -0.71095  -0.67937  -0.61955  -0.58810  -0.48692
 Alpha  occ. eigenvalues --   -0.47271
 Alpha virt. eigenvalues --    0.02961   0.07166   0.08570   0.10167   0.13347
 Alpha virt. eigenvalues --    0.13397   0.14403   0.15449   0.17828   0.19426
 Alpha virt. eigenvalues --    0.19985   0.20626   0.21923   0.23182   0.23730

 Mulliken charges:
               1
     1  H    0.250804
     2  O   -0.202723
     3  O   -0.147661
     4  N    0.292524
     5  O   -0.192943
 Sum of Mulliken charges =  -0.00000

 Dipole moment (field-independent basis, Debye):
    X=              0.5100    Y=              1.3523    Z=              0.0000  Tot=              1.4453
 Quadrupole moment (field-independent basis, Debye-Ang):
   XX=            -22.4167   YY=            -18.6507   ZZ=            -22.0236
   XY=              3.2859   XZ=             -0.0000   YZ=             -0.0000

  Exact polarizability:  34.234   9.487  30.214   0.000   0.000  17.959
 Approx polarizability:  29.288   5.098  23.499   0.000   0.000  15.537

 ******    1 imaginary frequencies (negative Signs) ******

                      1                      2                      3
                     A"                     A"                     A'
 Frequencies --   -272.7905               232.1768               342.6777
 Red. masses --      1.1404                10.3907                 8.6749
 Frc consts  --      0.0500                 0.3300                 0.6002
 IR Inten    --    124.3933                 0.8575                 3.3545

                      4                      5                      6
                     A'                     A'                     A'
 Frequencies --    448.8529               779.0911               948.3871
 Red. masses --     12.2306                13.0515                15.1074
 Frc consts  --      1.4518                 4.6675                 8.0059
 IR Inten    --    199.4725               166.8018                28.1340

                      7                      8                      9
                     A'                     A'                     A'
 Frequencies --   1360.5611              1676.8503              3779.6080
 Red. masses --      1.1328                13.3135                 1.0676
 Frc consts  --      1.2355                22.0562                 8.9858
 IR Inten    --    152.0529               141.0774                82.0710

 - Thermochemistry -
 -------------------
 Temperature   298.150 Kelvin.  Pressure   1.00000 Atm.
 Atom     1 has atomic number  1 and mass   1.00783

 Molecular mass:    62.99564 amu.
 Principal axes and moments of inertia in atomic units:
                           1         2         3
     Eigenvalues --    32.98002 361.75838 394.73839
           X            0.81362  -0.58139   0.00000
           Y            0.58139   0.81362   0.00000
           Z           -0.00000   0.00000   1.00000
 This molecule is an asymmetric top.
 Rotational symmetry number  1.
 Rotational temperatures (Kelvin)      2.62625     0.23942     0.21942
 Rotational constants (GHZ):          54.72226     4.98880     4.57199
    1 imaginary frequencies ignored.
 Zero-point vibrational energy      57230.6 (Joules/Mol)
                                   13.67844 (Kcal/Mol)
 Warning -- explicit consideration of   3 degrees of freedom as
           vibrations may cause significant error
 Vibrational temperatures:    334.05   493.04   645.80  1120.94  1364.52
          (Kelvin)           1957.54  2412.61  5438.01

 Zero-point correction=                           0.021798 (Hartree/Particle)
 Thermal correction to Energy=                    0.025917
 Thermal correction to Enthalpy=                  0.026862
 Thermal correction to Gibbs Free Energy=        -0.004325
 Sum of electronic and zero-point Energies=           -280.424888
 Sum of electronic and thermal Energies=              -280.420768
 Sum of electronic and thermal Enthalpies=            -280.419824
 Sum of electronic and thermal Free Energies=         -280.451011

                     E (Thermal)             CV                S
                      KCal/Mol        Cal/Mol-Kelvin    Cal/Mol-Kelvin
 Total                   16.263             11.991             65.638
 Electronic               0.000              0.000              0.000
 Translational            0.889              2.981             38.341
 Rotational               0.889              2.981             23.070
 Vibrational             14.486              6.029              4.228
 Vibration     1          0.653              1.792              1.862
 Vibration     2          0.722              1.590              1.200
 Vibration     3          0.808              1.363              0.799

                       ! Non-Optimized Parameters !

 1\1\GINC-N2228\Freq\RMP2-FC\Aug-CC-pVTZ\H1N1O3\CGAVINH\21-Feb-2022\1\\
 #p freq mp2/aug-cc-pvtz density=current\\title\\0,1\H\O,1,r1\O,2,r2,1,
 a1\N,3,r3,2,a2,1,d1,0\O,4,r4,3,a3,2,d2,0\\r1=0.96897556\r2=1.46444325\
 r3=1.45878406\r4=1.17072885\a1=97.59494903\a2=102.29752444\a3=109.0695
 5123\d1=180.\d2=180.\\Version=ES64L-G16RevB.01\State=1-A'\HF=-279.5008
 563\MP2=-280.4466856\RMSD=3.885e-09\RMSF=1.719e-03\ZeroPoint=0.021798\
 Thermal=0.0259175\Dipole=-0.1453172,0.,-0.549726\DipoleDeriv=0.2661379
 ,0.,0.0477378,0.,0.3551447,0.,0.0835134,0.,0.2743413,-0.3277745,0.,-0.

 Normal termination of Gaussian 16 at Mon Feb 21 20:08:11 2022.
