 Gaussian 16, Revision B.01,
 Gaussian 16:  ES64L-G16RevB.01 20-Dec-2017

 ---------------------------------------
 #p freq mp2/aug-cc-pvtz density=current
 ---------------------------------------

 -----
 title
 -----
 Symbolic Z-matrix:
 Charge =  0 Multiplicity = 1

                         Standard orientation:
 ---------------------------------------------------------------------
 Center     Atomic      Atomic             Coordinates (Angstroms)
 Number     Number       Type             X           Y           Z
 ---------------------------------------------------------------------
      1          1           0        1.544927    1.694011    0.000000
      2          8           0        1.453846    0.729326   -0.000000
      3          8           0       -0.000000    0.673440    0.000000
      4          7           0       -0.255726   -0.762754   -0.000000
      5          8           0       -1.423201   -0.947108    0.000000
 ---------------------------------------------------------------------

 SCF Done:  E(RHF) =  -279.499587613     A.U. after   14 cycles
 E2 =    -0.9469783289D+00 EUMP2 =    -0.28044656594186D+03
 E2 =    -0.9469783289D+00 EUMP2 =    -0.28044656594186D+03

 The electronic state is 1-A'.
 Alpha  occ. eigenvalues --  -20.69348 -20.68384 -20.66140 -15.81446  -1.61521
 Alpha  occ. eigenvalues --   -1.49543  -1.25552  -0.94961  -0.77159  -0.75626
 Alpha  occ. eigenvalues --   -0.70971  -0.67795  -0.61808  -0.59012  -0.48612
 Alpha  occ. eigenvalues --   -0.47466
 Alpha virt. eigenvalues --    0.02933   0.06822   0.08612   0.10172   0.13380
 Alpha virt. eigenvalues --    0.13417   0.14385   0.15426   0.17807   0.19430
 Alpha virt. eigenvalues --    0.19941   0.20634   0.22043   0.23451   0.23731

 Mulliken charges:
               1
     1  H    0.250641
     2  O   -0.200697
     3  O   -0.144721
     4  N    0.290452
     5  O   -0.195676
 Sum of Mulliken charges =  -0.00000

 Dipole moment (field-independent basis, Debye):
    X=              0.5495    Y=              1.4097    Z=              0.0000  Tot=              1.5130
 Quadrupole moment (field-independent basis, Debye-Ang):
   XX=            -22.5263   YY=            -18.6157   ZZ=            -22.0290
   XY=              3.2190   XZ=              0.0000   YZ=             -0.0000

  Exact polarizability:  34.119   9.593  30.405   0.000   0.000  17.949
 Approx polarizability:  29.258   5.197  23.618  -0.000   0.000  15.571

 ******    1 imaginary frequencies (negative Signs) ******

                      1                      2                      3
                     A"                     A"                     A'
 Frequencies --   -271.1654               262.0981               349.0660
 Red. masses --      1.1302                11.3267                 8.4846
 Frc consts  --      0.0490                 0.4584                 0.6091
 IR Inten    --    125.1825                 0.3464                 8.2560

                      4                      5                      6
                     A'                     A'                     A'
 Frequencies --    445.9704               785.4044               965.9052
 Red. masses --     12.4814                13.1590                15.3957
 Frc consts  --      1.4626                 4.7825                 8.4629
 IR Inten    --    196.7838               170.7014                23.9647

                      7                      8                      9
                     A'                     A'                     A'
 Frequencies --   1369.7783              1607.3586              3778.8045
 Red. masses --      1.1428                11.9252                 1.0676
 Frc consts  --      1.2634                18.1526                 8.9815
 IR Inten    --    160.5881               111.3241                83.3890

 - Thermochemistry -
 -------------------
 Temperature   298.150 Kelvin.  Pressure   1.00000 Atm.
 Atom     1 has atomic number  1 and mass   1.00783

 Molecular mass:    62.99564 amu.
 Principal axes and moments of inertia in atomic units:
                           1         2         3
     Eigenvalues --    32.88586 362.04923 394.93509
           X            0.80869  -0.58824   0.00000
           Y            0.58824   0.80869   0.00000
           Z            0.00000  -0.00000   1.00000
 This molecule is an asymmetric top.
 Rotational symmetry number  1.
 Rotational temperatures (Kelvin)      2.63377     0.23923     0.21931
 Rotational constants (GHZ):          54.87894     4.98480     4.56972
    1 imaginary frequencies ignored.
 Zero-point vibrational energy      57207.7 (Joules/Mol)
                                   13.67298 (Kcal/Mol)
 Warning -- explicit consideration of   3 degrees of freedom as
           vibrations may cause significant error
 Vibrational temperatures:    377.10   502.23   641.65  1130.02  1389.72
          (Kelvin)           1970.81  2312.63  5436.86

 Zero-point correction=                           0.021789 (Hartree/Particle)
 Thermal correction to Energy=                    0.025857
 Thermal correction to Enthalpy=                  0.026802
 Thermal correction to Gibbs Free Energy=        -0.004267
 Sum of electronic and zero-point Energies=           -280.424777
 Sum of electronic and thermal Energies=              -280.420709
 Sum of electronic and thermal Enthalpies=            -280.419764
 Sum of electronic and thermal Free Energies=         -280.450833

                     E (Thermal)             CV                S
                      KCal/Mol        Cal/Mol-Kelvin    Cal/Mol-Kelvin
 Total                   16.226             11.910             65.390
 Electronic               0.000              0.000              0.000
 Translational            0.889              2.981             38.341
 Rotational               0.889              2.981             23.068
 Vibrational             14.448              5.949              3.981
 Vibration     1          0.669              1.742              1.648
 Vibration     2          0.726              1.577              1.170
 Vibration     3          0.805              1.370              0.808

                       ! Non-Optimized Parameters !

 1\1\GINC-N2126\Freq\RMP2-FC\Aug-CC-pVTZ\H1N1O3\CGAVINH\21-Feb-2022\1\\
 #p freq mp2/aug-cc-pvtz density=current\\title\\0,1\H\O,1,r1\O,2,r2,1,
 a1\N,3,r3,2,a2,1,d1,0\O,4,r4,3,a3,2,d2,0\\r1=0.96897556\r2=1.45491931\
 r3=1.45878406\r4=1.18194012\a1=97.59494903\a2=102.29752444\a3=109.0695
 5123\d1=180.\d2=180.\\Version=ES64L-G16RevB.01\State=1-A'\HF=-279.4995
 876\MP2=-280.4465659\RMSD=4.099e-09\RMSF=5.618e-03\ZeroPoint=0.0217893
 \Thermal=0.0258574\Dipole=-0.1630877,0.,-0.5724896\DipoleDeriv=0.26640
 39,0.,0.04847,0.,0.3559197,0.,0.0828723,0.,0.276887,-0.3302224,0.,-0.2

 Normal termination of Gaussian 16 at Mon Feb 21 20:29:23 2022.
