 Gaussian 16, Revision B.01,
 Gaussian 16:  ES64L-G16RevB.01 20-Dec-2017

 ---------------------------------------
 #p freq mp2/aug-cc-pvtz density=current
 ---------------------------------------

 -----
 title
 -----
 Symbolic Z-matrix:
 Charge =  0 Multiplicity = 1

                         Standard orientation:
 ---------------------------------------------------------------------
 Center     Atomic      Atomic             Coordinates (Angstroms)
 Number     Number       Type             X           Y           Z
 ---------------------------------------------------------------------
      1          1           0        1.502719    1.693549    0.000000
      2          8           0        1.453957    0.725801    0.000000
      3          8           0       -0.000000    0.672906    0.000000
      4          7           0       -0.258679   -0.762760   -0.000000
      5          8           0       -1.415453   -0.942986   -0.000000
 ---------------------------------------------------------------------

 SCF Done:  E(RHF) =  -279.501069573     A.U. after   14 cycles
 E2 =    -0.9454403054D+00 EUMP2 =    -0.28044650987824D+03
 E2 =    -0.9454403054D+00 EUMP2 =    -0.28044650987824D+03

 The electronic state is 1-A'.
 Alpha  occ. eigenvalues --  -20.69061 -20.68427 -20.66096 -15.81279  -1.62417
 Alpha  occ. eigenvalues --   -1.49741  -1.25400  -0.94823  -0.77416  -0.75748
 Alpha  occ. eigenvalues --   -0.71210  -0.67859  -0.62093  -0.59183  -0.48555
 Alpha  occ. eigenvalues --   -0.47254
 Alpha virt. eigenvalues --    0.02993   0.07155   0.08591   0.10162   0.13382
 Alpha virt. eigenvalues --    0.13410   0.14415   0.15468   0.17817   0.19390
 Alpha virt. eigenvalues --    0.19957   0.20641   0.22066   0.23528   0.23734

 Mulliken charges:
               1
     1  H    0.254102
     2  O   -0.202029
     3  O   -0.149285
     4  N    0.290686
     5  O   -0.193474
 Sum of Mulliken charges =  -0.00000

 Dipole moment (field-independent basis, Debye):
    X=              0.4469    Y=              1.3547    Z=              0.0000  Tot=              1.4265
 Quadrupole moment (field-independent basis, Debye-Ang):
   XX=            -22.6860   YY=            -18.5925   ZZ=            -22.0059
   XY=              3.0976   XZ=              0.0000   YZ=             -0.0000

  Exact polarizability:  33.857   9.387  30.250   0.000   0.000  17.904
 Approx polarizability:  28.993   5.038  23.547   0.000   0.000  15.509

 ******    1 imaginary frequencies (negative Signs) ******

                      1                      2                      3
                     A"                     A"                     A'
 Frequencies --   -253.8625               225.2113               336.7803
 Red. masses --      1.1110                13.9297                 8.7494
 Frc consts  --      0.0422                 0.4163                 0.5847
 IR Inten    --    122.9672                 0.0740                 5.7488

                      4                      5                      6
                     A'                     A'                     A'
 Frequencies --    453.3929               787.6840               970.6598
 Red. masses --     12.5639                12.9144                15.8283
 Frc consts  --      1.5217                 4.7210                 8.7865
 IR Inten    --    197.3774               168.9699                24.5538

                      7                      8                      9
                     A'                     A'                     A'
 Frequencies --   1387.1939              1677.9354              3777.7680
 Red. masses --      1.1289                12.8742                 1.0668
 Frc consts  --      1.2799                21.3560                 8.9704
 IR Inten    --    163.7828               136.3119                79.4877

 - Thermochemistry -
 -------------------
 Temperature   298.150 Kelvin.  Pressure   1.00000 Atm.
 Atom     1 has atomic number  1 and mass   1.00783

 Molecular mass:    62.99564 amu.
 Principal axes and moments of inertia in atomic units:
                           1         2         3
     Eigenvalues --    32.93935 359.59410 392.53345
           X            0.80863  -0.58832   0.00000
           Y            0.58832   0.80863   0.00000
           Z            0.00000  -0.00000   1.00000
 This molecule is an asymmetric top.
 Rotational symmetry number  1.
 Rotational temperatures (Kelvin)      2.62950     0.24087     0.22065
 Rotational constants (GHZ):          54.78982     5.01883     4.59767
    1 imaginary frequencies ignored.
 Zero-point vibrational energy      57520.2 (Joules/Mol)
                                   13.74766 (Kcal/Mol)
 Warning -- explicit consideration of   3 degrees of freedom as
           vibrations may cause significant error
 Vibrational temperatures:    324.03   484.55   652.33  1133.30  1396.56
          (Kelvin)           1995.86  2414.17  5435.37

 Zero-point correction=                           0.021908 (Hartree/Particle)
 Thermal correction to Energy=                    0.026034
 Thermal correction to Enthalpy=                  0.026978
 Thermal correction to Gibbs Free Energy=        -0.004226
 Sum of electronic and zero-point Energies=           -280.424602
 Sum of electronic and thermal Energies=              -280.420476
 Sum of electronic and thermal Enthalpies=            -280.419532
 Sum of electronic and thermal Free Energies=         -280.450736

                     E (Thermal)             CV                S
                      KCal/Mol        Cal/Mol-Kelvin    Cal/Mol-Kelvin
 Total                   16.336             11.952             65.675
 Electronic               0.000              0.000              0.000
 Translational            0.889              2.981             38.341
 Rotational               0.889              2.981             23.057
 Vibrational             14.559              5.990              4.277
 Vibration     1          0.650              1.803              1.917
 Vibration     2          0.717              1.602              1.227
 Vibration     3          0.812              1.353              0.786

                       ! Non-Optimized Parameters !

 1\1\GINC-N2129\Freq\RMP2-FC\Aug-CC-pVTZ\H1N1O3\CGAVINH\21-Feb-2022\1\\
 #p freq mp2/aug-cc-pvtz density=current\\title\\0,1\H\O,1,r1\O,2,r2,1,
 a1\N,3,r3,2,a2,1,d1,0\O,4,r4,3,a3,2,d2,0\\r1=0.96897556\r2=1.45491931\
 r3=1.45878406\r4=1.17072885\a1=94.9680226\a2=102.29752444\a3=109.06955
 123\d1=180.\d2=180.\\Version=ES64L-G16RevB.01\State=1-A'\HF=-279.50106
 96\MP2=-280.4465099\RMSD=3.765e-09\RMSF=2.267e-03\ZeroPoint=0.0219083\
 Thermal=0.0260337\Dipole=-0.1487662,0.,-0.5411717\DipoleDeriv=0.276976
 7,0.,0.0577819,0.,0.352439,0.,0.0771552,0.,0.2710526,-0.3465115,0.,-0.

 Normal termination of Gaussian 16 at Mon Feb 21 20:42:53 2022.
