 Gaussian 16, Revision B.01,
 Gaussian 16:  ES64L-G16RevB.01 20-Dec-2017

 ---------------------------------------
 #p freq mp2/aug-cc-pvtz density=current
 ---------------------------------------

 -----
 title
 -----
 Symbolic Z-matrix:
 Charge =  0 Multiplicity = 1

                         Standard orientation:
 ---------------------------------------------------------------------
 Center     Atomic      Atomic             Coordinates (Angstroms)
 Number     Number       Type             X           Y           Z
 ---------------------------------------------------------------------
      1          1           0        1.519791    1.691470   -0.000000
      2          8           0        1.453997    0.724731    0.000000
      3          8           0        0.000000    0.672936   -0.000000
      4          7           0       -0.259766   -0.762533    0.000000
      5          8           0       -1.416676   -0.941884   -0.000000
 ---------------------------------------------------------------------

 SCF Done:  E(RHF) =  -279.501358722     A.U. after   14 cycles
 E2 =    -0.9452878026D+00 EUMP2 =    -0.28044664652425D+03
 E2 =    -0.9452878026D+00 EUMP2 =    -0.28044664652425D+03

 The electronic state is 1-A'.
 Alpha  occ. eigenvalues --  -20.69070 -20.68427 -20.66062 -15.81280  -1.62411
 Alpha  occ. eigenvalues --   -1.49679  -1.25416  -0.94816  -0.77363  -0.75811
 Alpha  occ. eigenvalues --   -0.71198  -0.67890  -0.62075  -0.59097  -0.48543
 Alpha  occ. eigenvalues --   -0.47252
 Alpha virt. eigenvalues --    0.02981   0.07160   0.08593   0.10166   0.13387
 Alpha virt. eigenvalues --    0.13406   0.14411   0.15462   0.17820   0.19400
 Alpha virt. eigenvalues --    0.19966   0.20641   0.22072   0.23535   0.23736

 Mulliken charges:
               1
     1  H    0.252618
     2  O   -0.201777
     3  O   -0.148509
     4  N    0.291072
     5  O   -0.193404
 Sum of Mulliken charges =  -0.00000

 Dipole moment (field-independent basis, Debye):
    X=              0.4697    Y=              1.3575    Z=             -0.0000  Tot=              1.4365
 Quadrupole moment (field-independent basis, Debye-Ang):
   XX=            -22.6073   YY=            -18.5994   ZZ=            -22.0075
   XY=              3.1566   XZ=             -0.0000   YZ=              0.0000

  Exact polarizability:  33.909   9.418  30.251  -0.000   0.000  17.913
 Approx polarizability:  28.997   5.062  23.538   0.000  -0.000  15.514

 ******    1 imaginary frequencies (negative Signs) ******

                      1                      2                      3
                     A"                     A"                     A'
 Frequencies --   -256.9225               226.0253               338.5509
 Red. masses --      1.1192                12.6963                 8.6987
 Frc consts  --      0.0435                 0.3822                 0.5874
 IR Inten    --    123.9033                 0.0307                 5.3017

                      4                      5                      6
                     A'                     A'                     A'
 Frequencies --    452.7647               786.8491               969.5717
 Red. masses --     12.4722                12.9169                15.7376
 Frc consts  --      1.5064                 4.7118                 8.7166
 IR Inten    --    198.2229               169.6585                23.7595

                      7                      8                      9
                     A'                     A'                     A'
 Frequencies --   1381.4458              1677.7128              3778.1289
 Red. masses --      1.1301                13.0034                 1.0671
 Frc consts  --      1.2707                21.5647                 8.9744
 IR Inten    --    159.6946               137.9032                80.5556

 - Thermochemistry -
 -------------------
 Temperature   298.150 Kelvin.  Pressure   1.00000 Atm.
 Atom     1 has atomic number  1 and mass   1.00783

 Molecular mass:    62.99564 amu.
 Principal axes and moments of inertia in atomic units:
                           1         2         3
     Eigenvalues --    32.90293 359.79868 392.70161
           X            0.80919  -0.58755   0.00000
           Y            0.58755   0.80919   0.00000
           Z            0.00000  -0.00000   1.00000
 This molecule is an asymmetric top.
 Rotational symmetry number  1.
 Rotational temperatures (Kelvin)      2.63241     0.24073     0.22056
 Rotational constants (GHZ):          54.85047     5.01598     4.59571
    1 imaginary frequencies ignored.
 Zero-point vibrational energy      57486.8 (Joules/Mol)
                                   13.73968 (Kcal/Mol)
 Warning -- explicit consideration of   3 degrees of freedom as
           vibrations may cause significant error
 Vibrational temperatures:    325.20   487.10   651.43  1132.10  1395.00
          (Kelvin)           1987.59  2413.85  5435.88

 Zero-point correction=                           0.021896 (Hartree/Particle)
 Thermal correction to Energy=                    0.026019
 Thermal correction to Enthalpy=                  0.026963
 Thermal correction to Gibbs Free Energy=        -0.004236
 Sum of electronic and zero-point Energies=           -280.424751
 Sum of electronic and thermal Energies=              -280.420628
 Sum of electronic and thermal Enthalpies=            -280.419683
 Sum of electronic and thermal Free Energies=         -280.450882

                     E (Thermal)             CV                S
                      KCal/Mol        Cal/Mol-Kelvin    Cal/Mol-Kelvin
 Total                   16.327             11.953             65.663
 Electronic               0.000              0.000              0.000
 Translational            0.889              2.981             38.341
 Rotational               0.889              2.981             23.057
 Vibrational             14.550              5.991              4.266
 Vibration     1          0.650              1.801              1.910
 Vibration     2          0.719              1.598              1.219
 Vibration     3          0.811              1.355              0.787

                       ! Non-Optimized Parameters !

 1\1\GINC-N2110\Freq\RMP2-FC\Aug-CC-pVTZ\H1N1O3\CGAVINH\21-Feb-2022\1\\
 #p freq mp2/aug-cc-pvtz density=current\\title\\0,1\H\O,1,r1\O,2,r2,1,
 a1\N,3,r3,2,a2,1,d1,0\O,4,r4,3,a3,2,d2,0\\r1=0.96897556\r2=1.45491931\
 r3=1.45878406\r4=1.17072885\a1=95.93353488\a2=102.29752444\a3=109.0695
 5123\d1=180.\d2=180.\\Version=ES64L-G16RevB.01\State=1-A'\HF=-279.5013
 587\MP2=-280.4466465\RMSD=3.774e-09\RMSF=1.432e-03\ZeroPoint=0.0218956
 \Thermal=0.0260189\Dipole=-0.1480934,0.,-0.5454027\DipoleDeriv=0.27287
 01,0.,0.054314,0.,0.3535734,0.,0.0789822,0.,0.2726777,-0.3396977,0.,-0

 Normal termination of Gaussian 16 at Mon Feb 21 20:41:41 2022.
