 Gaussian 16, Revision B.01,
 Gaussian 16:  ES64L-G16RevB.01 20-Dec-2017

 ---------------------------------------
 #p freq mp2/aug-cc-pvtz density=current
 ---------------------------------------

 -----
 title
 -----
 Symbolic Z-matrix:
 Charge =  0 Multiplicity = 1

                         Standard orientation:
 ---------------------------------------------------------------------
 Center     Atomic      Atomic             Coordinates (Angstroms)
 Number     Number       Type             X           Y           Z
 ---------------------------------------------------------------------
      1          1           0        1.547881    1.683465   -0.000000
      2          8           0        1.454002    0.719048   -0.000000
      3          8           0        0.000000    0.667380    0.000000
      4          7           0       -0.259892   -0.768067    0.000000
      5          8           0       -1.420081   -0.924803    0.000000
 ---------------------------------------------------------------------

 SCF Done:  E(RHF) =  -279.501661671     A.U. after   14 cycles
 E2 =    -0.9449819464D+00 EUMP2 =    -0.28044664361701D+03
 E2 =    -0.9449819464D+00 EUMP2 =    -0.28044664361701D+03

 The electronic state is 1-A'.
 Alpha  occ. eigenvalues --  -20.69042 -20.68390 -20.65926 -15.81321  -1.62497
 Alpha  occ. eigenvalues --   -1.49491  -1.25349  -0.94837  -0.77217  -0.75957
 Alpha  occ. eigenvalues --   -0.71201  -0.67908  -0.62001  -0.58844  -0.48469
 Alpha  occ. eigenvalues --   -0.47382
 Alpha virt. eigenvalues --    0.02972   0.07120   0.08616   0.10170   0.13389
 Alpha virt. eigenvalues --    0.13389   0.14414   0.15445   0.17838   0.19412
 Alpha virt. eigenvalues --    0.19985   0.20657   0.22079   0.23653   0.23753

 Mulliken charges:
               1
     1  H    0.250195
     2  O   -0.204021
     3  O   -0.145551
     4  N    0.293034
     5  O   -0.193657
 Sum of Mulliken charges =  -0.00000

 Dipole moment (field-independent basis, Debye):
    X=              0.5110    Y=              1.3458    Z=             -0.0000  Tot=              1.4396
 Quadrupole moment (field-independent basis, Debye-Ang):
   XX=            -22.5046   YY=            -18.6087   ZZ=            -22.0048
   XY=              3.2285   XZ=              0.0000   YZ=              0.0000

  Exact polarizability:  33.974   9.368  30.084  -0.000  -0.000  17.907
 Approx polarizability:  29.038   4.960  23.409  -0.000  -0.000  15.512

 ******    1 imaginary frequencies (negative Signs) ******

                      1                      2                      3
                     A"                     A"                     A'
 Frequencies --   -265.7211               229.5800               341.5972
 Red. masses --      1.1350                10.9562                 8.6489
 Frc consts  --      0.0472                 0.3402                 0.5946
 IR Inten    --    124.9806                 0.5250                 3.4064

                      4                      5                      6
                     A'                     A'                     A'
 Frequencies --    460.7818               783.8456               968.2966
 Red. masses --     12.1750                12.9419                15.4694
 Frc consts  --      1.5230                 4.6850                 8.5455
 IR Inten    --    200.1291               165.5874                20.8432

                      7                      8                      9
                     A'                     A'                     A'
 Frequencies --   1371.4029              1677.6185              3778.5040
 Red. masses --      1.1332                13.2576                 1.0675
 Frc consts  --      1.2557                21.9837                 8.9799
 IR Inten    --    150.9164               137.2518                81.6461

 - Thermochemistry -
 -------------------
 Temperature   298.150 Kelvin.  Pressure   1.00000 Atm.
 Atom     1 has atomic number  1 and mass   1.00783

 Molecular mass:    62.99564 amu.
 Principal axes and moments of inertia in atomic units:
                           1         2         3
     Eigenvalues --    33.02522 358.15006 391.17528
           X            0.81279  -0.58256   0.00000
           Y            0.58256   0.81279   0.00000
           Z           -0.00000   0.00000   1.00000
 This molecule is an asymmetric top.
 Rotational symmetry number  1.
 Rotational temperatures (Kelvin)      2.62266     0.24184     0.22142
 Rotational constants (GHZ):          54.64737     5.03906     4.61364
    1 imaginary frequencies ignored.
 Zero-point vibrational energy      57490.3 (Joules/Mol)
                                   13.74051 (Kcal/Mol)
 Warning -- explicit consideration of   3 degrees of freedom as
           vibrations may cause significant error
 Vibrational temperatures:    330.31   491.48   662.96  1127.78  1393.16
          (Kelvin)           1973.14  2413.72  5436.42

 Zero-point correction=                           0.021897 (Hartree/Particle)
 Thermal correction to Energy=                    0.026006
 Thermal correction to Enthalpy=                  0.026950
 Thermal correction to Gibbs Free Energy=        -0.004216
 Sum of electronic and zero-point Energies=           -280.424747
 Sum of electronic and thermal Energies=              -280.420637
 Sum of electronic and thermal Enthalpies=            -280.419693
 Sum of electronic and thermal Free Energies=         -280.450860

                     E (Thermal)             CV                S
                      KCal/Mol        Cal/Mol-Kelvin    Cal/Mol-Kelvin
 Total                   16.319             11.934             65.596
 Electronic               0.000              0.000              0.000
 Translational            0.889              2.981             38.341
 Rotational               0.889              2.981             23.052
 Vibrational             14.542              5.973              4.204
 Vibration     1          0.652              1.796              1.882
 Vibration     2          0.721              1.592              1.205
 Vibration     3          0.819              1.337              0.764

                       ! Non-Optimized Parameters !

 1\1\GINC-N2110\Freq\RMP2-FC\Aug-CC-pVTZ\H1N1O3\CGAVINH\21-Feb-2022\1\\
 #p freq mp2/aug-cc-pvtz density=current\\title\\0,1\H\O,1,r1\O,2,r2,1,
 a1\N,3,r3,2,a2,1,d1,0\O,4,r4,3,a3,2,d2,0\\r1=0.96897556\r2=1.45491931\
 r3=1.45878406\r4=1.17072885\a1=97.59494903\a2=102.29752444\a3=107.9562
 0008\d1=180.\d2=180.\\Version=ES64L-G16RevB.01\State=1-A'\HF=-279.5016
 617\MP2=-280.4466436\RMSD=3.743e-09\RMSF=2.107e-03\ZeroPoint=0.0218969
 \Thermal=0.0260062\Dipole=-0.1488063,0.,-0.5464722\DipoleDeriv=0.26571
 27,0.,0.047962,0.,0.3553342,0.,0.0811929,0.,0.2738563,-0.3307306,0.,-0

 Normal termination of Gaussian 16 at Mon Feb 21 20:59:16 2022.
