 Gaussian 16, Revision B.01,
 Gaussian 16:  ES64L-G16RevB.01 20-Dec-2017

 ---------------------------------------
 #p freq mp2/aug-cc-pvtz density=current
 ---------------------------------------

 -----
 title
 -----
 Symbolic Z-matrix:
 Charge =  0 Multiplicity = 1

                         Standard orientation:
 ---------------------------------------------------------------------
 Center     Atomic      Atomic             Coordinates (Angstroms)
 Number     Number       Type             X           Y           Z
 ---------------------------------------------------------------------
      1          1           0       -2.248504    0.434023   -0.023632
      2          8           0       -1.598096   -0.284207   -0.018293
      3          8           0       -0.400549    0.541117    0.020593
      4          7           0        0.663945   -0.456269    0.031740
      5          8           0        1.698757    0.088072   -0.027118
 ---------------------------------------------------------------------

 SCF Done:  E(RHF) =  -279.501597675     A.U. after   15 cycles
 E2 =    -0.9450006152D+00 EUMP2 =    -0.28044659829040D+03
 E2 =    -0.9450006152D+00 EUMP2 =    -0.28044659829040D+03

 The electronic state is 1-A.
 Alpha  occ. eigenvalues --  -20.69077 -20.68437 -20.65999 -15.81279  -1.62404
 Alpha  occ. eigenvalues --   -1.49572  -1.25439  -0.94806  -0.77276  -0.75916
 Alpha  occ. eigenvalues --   -0.71202  -0.67913  -0.62053  -0.58937  -0.48522
 Alpha  occ. eigenvalues --   -0.47249
 Alpha virt. eigenvalues --    0.02963   0.07158   0.08600   0.10172   0.13252
 Alpha virt. eigenvalues --    0.13530   0.14409   0.15454   0.17811   0.19413
 Alpha virt. eigenvalues --    0.19959   0.20657   0.22089   0.23463   0.23833

 Mulliken charges:
               1
     1  H    0.250336
     2  O   -0.201559
     3  O   -0.147473
     4  N    0.291659
     5  O   -0.192964
 Sum of Mulliken charges =  -0.00000

 Dipole moment (field-independent basis, Debye):
    X=             -1.2162    Y=              0.7907    Z=             -0.0086  Tot=              1.4506
 Quadrupole moment (field-independent basis, Debye-Ang):
   XX=            -17.9862   YY=            -23.0931   ZZ=            -22.0142
   XY=             -2.7885   XZ=              0.1273   YZ=              0.0497

  Exact polarizability:  41.704  -0.974  22.517  -0.076  -0.052  17.944
 Approx polarizability:  31.931   1.129  20.575  -0.153  -0.011  15.542

 ******    1 imaginary frequencies (negative Signs) ******

                      1                      2                      3
                      A                      A                      A
 Frequencies --   -269.6337               226.9864               341.7661
 Red. masses --      1.1385                10.5236                 8.6350
 Frc consts  --      0.0488                 0.3195                 0.5942
 IR Inten    --    124.7223                 1.4104                 4.3016

                      4                      5                      6
                      A                      A                      A
 Frequencies --    451.8296               785.6491               967.2351
 Red. masses --     12.3069                12.9127                15.3947
 Frc consts  --      1.4803                 4.6959                 8.4857
 IR Inten    --    199.3610               170.4707                22.4914

                      7                      8                      9
                      A                      A                      A
 Frequencies --   1371.1539              1677.1008              3778.6923
 Red. masses --      1.1334                13.2091                 1.0675
 Frc consts  --      1.2555                21.8898                 8.9809
 IR Inten    --    152.7987               140.3365                82.5912

 - Thermochemistry -
 -------------------
 Temperature   298.150 Kelvin.  Pressure   1.00000 Atm.
 Atom     1 has atomic number  1 and mass   1.00783

 Molecular mass:    62.99564 amu.
 Principal axes and moments of inertia in atomic units:
                           1         2         3
     Eigenvalues --    32.95925 360.00456 392.68872
           X            0.99994  -0.01071   0.00054
           Y            0.01071   0.99994  -0.00117
           Z           -0.00053   0.00118   1.00000
 This molecule is an asymmetric top.
 Rotational symmetry number  1.
 Rotational temperatures (Kelvin)      2.62791     0.24059     0.22057
 Rotational constants (GHZ):          54.75674     5.01311     4.59586
    1 imaginary frequencies ignored.
 Zero-point vibrational energy      57423.2 (Joules/Mol)
                                   13.72448 (Kcal/Mol)
 Warning -- explicit consideration of   3 degrees of freedom as
           vibrations may cause significant error
 Vibrational temperatures:    326.58   491.73   650.08  1130.37  1391.64
          (Kelvin)           1972.78  2412.97  5436.70

 Zero-point correction=                           0.021871 (Hartree/Particle)
 Thermal correction to Energy=                    0.025991
 Thermal correction to Enthalpy=                  0.026936
 Thermal correction to Gibbs Free Energy=        -0.004256
 Sum of electronic and zero-point Energies=           -280.424727
 Sum of electronic and thermal Energies=              -280.420607
 Sum of electronic and thermal Enthalpies=            -280.419663
 Sum of electronic and thermal Free Energies=         -280.450854

                     E (Thermal)             CV                S
                      KCal/Mol        Cal/Mol-Kelvin    Cal/Mol-Kelvin
 Total                   16.310             11.956             65.648
 Electronic               0.000              0.000              0.000
 Translational            0.889              2.981             38.341
 Rotational               0.889              2.981             23.059
 Vibrational             14.532              5.994              4.249
 Vibration     1          0.651              1.800              1.903
 Vibration     2          0.721              1.592              1.204
 Vibration     3          0.810              1.357              0.790

                       ! Non-Optimized Parameters !

 1\1\GINC-N2125\Freq\RMP2-FC\Aug-CC-pVTZ\H1N1O3\CGAVINH\21-Feb-2022\1\\
 #p freq mp2/aug-cc-pvtz density=current\\title\\0,1\H\O,1,r1\O,2,r2,1,
 a1\N,3,r3,2,a2,1,d1,0\O,4,r4,3,a3,2,d2,0\\r1=0.96897556\r2=1.45491931\
 r3=1.45878406\r4=1.17072885\a1=97.59494903\a2=102.29752444\a3=109.0695
 5123\d1=180.\d2=175.32708561\\Version=ES64L-G16RevB.01\State=1-A\HF=-2
 79.5015977\MP2=-280.4465983\RMSD=8.645e-09\RMSF=7.459e-04\ZeroPoint=0.
 0218714\Thermal=0.0259914\Dipole=-0.1458011,0.003472,-0.5517745\Dipole
 Deriv=0.2663706,0.0006977,0.0482025,-0.0016263,0.3555691,-0.0020525,0.

 Normal termination of Gaussian 16 at Mon Feb 21 21:17:43 2022.
