 Gaussian 16, Revision B.01,
 Gaussian 16:  ES64L-G16RevB.01 20-Dec-2017

 -------------------------------------
 #p SP mp2/aug-cc-pvtz density=current
 -------------------------------------

 -----
 title
 -----
 Symbolic Z-matrix:
 Charge =  0 Multiplicity = 1

                         Standard orientation:
 ---------------------------------------------------------------------
 Center     Atomic      Atomic             Coordinates (Angstroms)
 Number     Number       Type             X           Y           Z
 ---------------------------------------------------------------------
      1          1           0        1.549780    1.689003    0.000000
      2          8           0        1.454096    0.724763    0.000000
      3          8           0        0.000000    0.675818    0.000000
      4          7           0       -0.262579   -0.759140   -0.000000
      5          8           0       -1.418062   -0.947458   -0.000000
 ---------------------------------------------------------------------

 SCF Done:  E(RHF) =  -279.501625181     A.U. after   14 cycles
 E2 =    -0.9450864340D+00 EUMP2 =    -0.28044671161507D+03

 The electronic state is 1-A'.
 Alpha  occ. eigenvalues --  -20.69112 -20.68449 -20.66033 -15.81264  -1.62357
 Alpha  occ. eigenvalues --   -1.49615  -1.25486  -0.94792  -0.77308  -0.75900
 Alpha  occ. eigenvalues --   -0.71169  -0.67952  -0.62067  -0.58991  -0.48549
 Alpha  occ. eigenvalues --   -0.47182
 Alpha virt. eigenvalues --    0.02958   0.07191   0.08584   0.10173   0.13398
 Alpha virt. eigenvalues --    0.13399   0.14406   0.15457   0.17820   0.19420
 Alpha virt. eigenvalues --    0.19979   0.20626   0.22082   0.23488   0.23731

 Mulliken charges:
               1
     1  H    0.250283
     2  O   -0.200390
     3  O   -0.147938
     4  N    0.291100
     5  O   -0.193055
 Sum of Mulliken charges =  -0.00000

 Dipole moment (field-independent basis, Debye):
    X=              0.5066    Y=              1.3680    Z=              0.0000  Tot=              1.4588
 Quadrupole moment (field-independent basis, Debye-Ang):
   XX=            -22.4512   YY=            -18.6194   ZZ=            -22.0132
   XY=              3.2697   XZ=             -0.0000   YZ=              0.0000

 Normal termination of Gaussian 16 at Mon Feb 14 22:01:36 2022.
