 Gaussian 16, Revision B.01,
 Gaussian 16:  ES64L-G16RevB.01 20-Dec-2017

 -------------------------------------
 #p SP mp2/aug-cc-pvtz density=current
 -------------------------------------

 -----
 title
 -----
 Symbolic Z-matrix:
 Charge =  0 Multiplicity = 1

                         Standard orientation:
 ---------------------------------------------------------------------
 Center     Atomic      Atomic             Coordinates (Angstroms)
 Number     Number       Type             X           Y           Z
 ---------------------------------------------------------------------
      1          1           0        1.547634    1.689620    0.000000
      2          8           0        1.453989    0.725180    0.000000
      3          8           0       -0.000000    0.673160   -0.000000
      4          7           0       -0.259544   -0.762349   -0.000000
      5          8           0       -1.420342   -0.942487   -0.000000
 ---------------------------------------------------------------------

 SCF Done:  E(RHF) =  -279.500988482     A.U. after   14 cycles
 E2 =    -0.9457265895D+00 EUMP2 =    -0.28044671507166D+03

 The electronic state is 1-A'.
 Alpha  occ. eigenvalues --  -20.69181 -20.68413 -20.66049 -15.81341  -1.62086
 Alpha  occ. eigenvalues --   -1.49567  -1.25481  -0.94861  -0.77234  -0.75814
 Alpha  occ. eigenvalues --   -0.71102  -0.67889  -0.61964  -0.58968  -0.48555
 Alpha  occ. eigenvalues --   -0.47327
 Alpha virt. eigenvalues --    0.02952   0.07045   0.08601   0.10172   0.13390
 Alpha virt. eigenvalues --    0.13403   0.14399   0.15444   0.17819   0.19422
 Alpha virt. eigenvalues --    0.19966   0.20636   0.22068   0.23509   0.23735

 Mulliken charges:
               1
     1  H    0.250397
     2  O   -0.201271
     3  O   -0.146292
     4  N    0.291308
     5  O   -0.194142
 Sum of Mulliken charges =  -0.00000

 Dipole moment (field-independent basis, Debye):
    X=              0.5231    Y=              1.3782    Z=              0.0000  Tot=              1.4741
 Quadrupole moment (field-independent basis, Debye-Ang):
   XX=            -22.4896   YY=            -18.6158   ZZ=            -22.0169
   XY=              3.2428   XZ=             -0.0000   YZ=              0.0000

 Normal termination of Gaussian 16 at Mon Feb 14 21:59:48 2022.
