 Gaussian 16, Revision B.01,
 Gaussian 16:  ES64L-G16RevB.01 20-Dec-2017

 -------------------------------------
 #p SP mp2/aug-cc-pvtz density=current
 -------------------------------------

 -----
 title
 -----
 Symbolic Z-matrix:
 Charge =  0 Multiplicity = 1

                         Standard orientation:
 ---------------------------------------------------------------------
 Center     Atomic      Atomic             Coordinates (Angstroms)
 Number     Number       Type             X           Y           Z
 ---------------------------------------------------------------------
      1          1           0        1.550442    1.680371    0.000000
      2          8           0        1.454127    0.716194    0.000000
      3          8           0       -0.000000    0.668198    0.000000
      4          7           0       -0.261631   -0.756326   -0.000000
      5          8           0       -1.419005   -0.932653   -0.000000
 ---------------------------------------------------------------------

 SCF Done:  E(RHF) =  -279.502665792     A.U. after   14 cycles
 E2 =    -0.9440473277D+00 EUMP2 =    -0.28044671312004D+03

 The electronic state is 1-A'.
 Alpha  occ. eigenvalues --  -20.69265 -20.68181 -20.66126 -15.81116  -1.62465
 Alpha  occ. eigenvalues --   -1.49719  -1.25756  -0.94730  -0.77363  -0.76043
 Alpha  occ. eigenvalues --   -0.71362  -0.67883  -0.61992  -0.58998  -0.48629
 Alpha  occ. eigenvalues --   -0.47291
 Alpha virt. eigenvalues --    0.02934   0.07302   0.08613   0.10183   0.13387
 Alpha virt. eigenvalues --    0.13401   0.14386   0.15433   0.17803   0.19420
 Alpha virt. eigenvalues --    0.19986   0.20769   0.22051   0.23496   0.23751

 Mulliken charges:
               1
     1  H    0.250351
     2  O   -0.200875
     3  O   -0.140323
     4  N    0.288647
     5  O   -0.197800
 Sum of Mulliken charges =  -0.00000

 Dipole moment (field-independent basis, Debye):
    X=              0.5558    Y=              1.4206    Z=              0.0000  Tot=              1.5255
 Quadrupole moment (field-independent basis, Debye-Ang):
   XX=            -22.4870   YY=            -18.6600   ZZ=            -21.9954
   XY=              3.2363   XZ=             -0.0000   YZ=             -0.0000

 Normal termination of Gaussian 16 at Mon Feb 14 21:59:29 2022.
