 Gaussian 16, Revision B.01,
 Gaussian 16:  ES64L-G16RevB.01 20-Dec-2017

 -------------------------------------
 #p SP mp2/aug-cc-pvtz density=current
 -------------------------------------

 -----
 title
 -----
 Symbolic Z-matrix:
 Charge =  0 Multiplicity = 1

                         Standard orientation:
 ---------------------------------------------------------------------
 Center     Atomic      Atomic             Coordinates (Angstroms)
 Number     Number       Type             X           Y           Z
 ---------------------------------------------------------------------
      1          1           0        1.534461    1.689450   -0.000000
      2          8           0        1.454030    0.723818   -0.000000
      3          8           0       -0.000000    0.672969    0.000000
      4          7           0       -0.260700   -0.762331    0.000000
      5          8           0       -1.417726   -0.940929    0.000000
 ---------------------------------------------------------------------

 SCF Done:  E(RHF) =  -279.501549718     A.U. after   14 cycles
 E2 =    -0.9451639631D+00 EUMP2 =    -0.28044671368145D+03

 The electronic state is 1-A'.
 Alpha  occ. eigenvalues --  -20.69079 -20.68428 -20.66031 -15.81281  -1.62407
 Alpha  occ. eigenvalues --   -1.49626  -1.25429  -0.94811  -0.77320  -0.75865
 Alpha  occ. eigenvalues --   -0.71189  -0.67915  -0.62061  -0.59021  -0.48533
 Alpha  occ. eigenvalues --   -0.47251
 Alpha virt. eigenvalues --    0.02972   0.07164   0.08594   0.10169   0.13391
 Alpha virt. eigenvalues --    0.13401   0.14409   0.15458   0.17823   0.19409
 Alpha virt. eigenvalues --    0.19973   0.20639   0.22077   0.23540   0.23737

 Mulliken charges:
               1
     1  H    0.251409
     2  O   -0.201645
     3  O   -0.147837
     4  N    0.291407
     5  O   -0.193334
 Sum of Mulliken charges =  -0.00000

 Dipole moment (field-independent basis, Debye):
    X=              0.4891    Y=              1.3594    Z=             -0.0000  Tot=              1.4447
 Quadrupole moment (field-independent basis, Debye-Ang):
   XX=            -22.5386   YY=            -18.6069   ZZ=            -22.0089
   XY=              3.2067   XZ=              0.0000   YZ=             -0.0000

 Normal termination of Gaussian 16 at Mon Feb 14 22:00:42 2022.
