 Gaussian 16, Revision B.01,
 Gaussian 16:  ES64L-G16RevB.01 20-Dec-2017

 -------------------------------------
 #p SP mp2/aug-cc-pvtz density=current
 -------------------------------------

 -----
 title
 -----
 Symbolic Z-matrix:
 Charge =  0 Multiplicity = 1

                         Standard orientation:
 ---------------------------------------------------------------------
 Center     Atomic      Atomic             Coordinates (Angstroms)
 Number     Number       Type             X           Y           Z
 ---------------------------------------------------------------------
      1          1           0        1.752148   -0.128755    0.000000
      2          8           0        0.898372   -0.589707    0.000000
      3          7           0       -0.000000    0.519995   -0.000000
      4          8           0       -1.117391    0.150805   -0.000000
 ---------------------------------------------------------------------

 SCF Done:  E(RHF) =  -204.723219123     A.U. after   13 cycles
 E2 =    -0.6981068833D+00 EUMP2 =    -0.20542132600617D+03

 The electronic state is 1-A'.
 Alpha  occ. eigenvalues --  -20.66529 -20.64283 -15.79870  -1.60297  -1.40325
 Alpha  occ. eigenvalues --   -0.94796  -0.78377  -0.73026  -0.68173  -0.62620
 Alpha  occ. eigenvalues --   -0.52873  -0.46191
 Alpha virt. eigenvalues --    0.02806   0.08029   0.09389   0.09742   0.12875
 Alpha virt. eigenvalues --    0.14366   0.15695   0.17228   0.18732   0.19641
 Alpha virt. eigenvalues --    0.20550   0.23360   0.25743   0.29644   0.30771

 Mulliken charges:
               1
     1  H    0.274195
     2  O   -0.270835
     3  N    0.178722
     4  O   -0.182082
 Sum of Mulliken charges =  -0.00000

 Dipole moment (field-independent basis, Debye):
    X=              1.7424    Y=              0.6723    Z=              0.0000  Tot=              1.8676
 Quadrupole moment (field-independent basis, Debye-Ang):
   XX=            -13.7149   YY=            -18.6886   ZZ=            -16.4567
   XY=              0.6323   XZ=             -0.0000   YZ=             -0.0000

 Normal termination of Gaussian 16 at Mon Jan 31 11:40:04 2022.
