 Gaussian 16, Revision B.01,
 Gaussian 16:  ES64L-G16RevB.01 20-Dec-2017

 -------------------------------------
 #p SP mp2/aug-cc-pvtz density=current
 -------------------------------------

 -----
 title
 -----
 Symbolic Z-matrix:
 Charge =  0 Multiplicity = 1

                         Standard orientation:
 ---------------------------------------------------------------------
 Center     Atomic      Atomic             Coordinates (Angstroms)
 Number     Number       Type             X           Y           Z
 ---------------------------------------------------------------------
      1          1           0        1.753955   -0.146132   -0.000000
      2          8           0        0.888245   -0.584260   -0.000000
      3          7           0        0.000000    0.533565   -0.000000
      4          8           0       -1.107489    0.135657    0.000000
 ---------------------------------------------------------------------

 SCF Done:  E(RHF) =  -204.723149429     A.U. after   13 cycles
 E2 =    -0.6978752545D+00 EUMP2 =    -0.20542102468308D+03

 The electronic state is 1-A'.
 Alpha  occ. eigenvalues --  -20.66420 -20.64108 -15.79907  -1.60423  -1.40017
 Alpha  occ. eigenvalues --   -0.94824  -0.78493  -0.72856  -0.68180  -0.62308
 Alpha  occ. eigenvalues --   -0.52715  -0.46409
 Alpha virt. eigenvalues --    0.02809   0.07971   0.09413   0.09739   0.12883
 Alpha virt. eigenvalues --    0.14390   0.15689   0.17187   0.18748   0.19645
 Alpha virt. eigenvalues --    0.20580   0.23385   0.25886   0.29710   0.30762

 Mulliken charges:
               1
     1  H    0.268664
     2  O   -0.268703
     3  N    0.181309
     4  O   -0.181269
 Sum of Mulliken charges =  -0.00000

 Dipole moment (field-independent basis, Debye):
    X=              1.7627    Y=              0.6734    Z=             -0.0000  Tot=              1.8869
 Quadrupole moment (field-independent basis, Debye-Ang):
   XX=            -13.7038   YY=            -18.6431   ZZ=            -16.4481
   XY=              0.5672   XZ=              0.0000   YZ=             -0.0000

 Normal termination of Gaussian 16 at Mon Jan 31 11:56:23 2022.
