 Gaussian 16, Revision B.01,
 Gaussian 16:  ES64L-G16RevB.01 20-Dec-2017

 -------------------------------------
 #p SP mp2/aug-cc-pvtz density=current
 -------------------------------------

 -----
 title
 -----
 Symbolic Z-matrix:
 Charge =  0 Multiplicity = 1

                         Standard orientation:
 ---------------------------------------------------------------------
 Center     Atomic      Atomic             Coordinates (Angstroms)
 Number     Number       Type             X           Y           Z
 ---------------------------------------------------------------------
      1          1           0        1.751233   -0.147371    0.000000
      2          8           0        0.898458   -0.588822    0.000000
      3          7           0        0.000000    0.520810   -0.000000
      4          8           0       -1.117362    0.151534   -0.000000
 ---------------------------------------------------------------------

 SCF Done:  E(RHF) =  -204.723805645     A.U. after   13 cycles
 E2 =    -0.6974563811D+00 EUMP2 =    -0.20542126202569D+03

 The electronic state is 1-A'.
 Alpha  occ. eigenvalues --  -20.66553 -20.64156 -15.79900  -1.60316  -1.40490
 Alpha  occ. eigenvalues --   -0.94957  -0.78578  -0.73010  -0.68181  -0.62679
 Alpha  occ. eigenvalues --   -0.52895  -0.46204
 Alpha virt. eigenvalues --    0.02817   0.08027   0.09391   0.09750   0.12882
 Alpha virt. eigenvalues --    0.14427   0.15682   0.17215   0.18707   0.19652
 Alpha virt. eigenvalues --    0.20555   0.23354   0.25856   0.29673   0.30767

 Mulliken charges:
               1
     1  H    0.264283
     2  O   -0.263124
     3  N    0.179992
     4  O   -0.181151
 Sum of Mulliken charges =  -0.00000

 Dipole moment (field-independent basis, Debye):
    X=              1.7422    Y=              0.6548    Z=             -0.0000  Tot=              1.8612
 Quadrupole moment (field-independent basis, Debye-Ang):
   XX=            -13.6861   YY=            -18.6884   ZZ=            -16.4449
   XY=              0.5741   XZ=              0.0000   YZ=              0.0000

 Normal termination of Gaussian 16 at Mon Jan 31 11:39:14 2022.
