 Gaussian 16, Revision B.01,
 Gaussian 16:  ES64L-G16RevB.01 20-Dec-2017

 -------------------------------------
 #p SP mp2/aug-cc-pvtz density=current
 -------------------------------------

 -----
 title
 -----
 Symbolic Z-matrix:
 Charge =  0 Multiplicity = 1

                         Standard orientation:
 ---------------------------------------------------------------------
 Center     Atomic      Atomic             Coordinates (Angstroms)
 Number     Number       Type             X           Y           Z
 ---------------------------------------------------------------------
      1          1           0        1.751394   -0.167700    0.000000
      2          8           0        0.884047   -0.602578    0.000000
      3          7           0       -0.000000    0.518570   -0.000000
      4          8           0       -1.102971    0.169791   -0.000000
 ---------------------------------------------------------------------

 SCF Done:  E(RHF) =  -204.726059562     A.U. after   13 cycles
 E2 =    -0.6946825928D+00 EUMP2 =    -0.20542074215531D+03

 The electronic state is 1-A'.
 Alpha  occ. eigenvalues --  -20.66568 -20.63761 -15.79559  -1.61954  -1.40225
 Alpha  occ. eigenvalues --   -0.94495  -0.78850  -0.73398  -0.68899  -0.62724
 Alpha  occ. eigenvalues --   -0.52946  -0.45754
 Alpha virt. eigenvalues --    0.02857   0.08632   0.09344   0.09770   0.12892
 Alpha virt. eigenvalues --    0.14448   0.15685   0.17244   0.18746   0.19625
 Alpha virt. eigenvalues --    0.20623   0.23323   0.25857   0.29731   0.31024

 Mulliken charges:
               1
     1  H    0.271089
     2  O   -0.275409
     3  N    0.180748
     4  O   -0.176428
 Sum of Mulliken charges =  -0.00000

 Dipole moment (field-independent basis, Debye):
    X=              1.6590    Y=              0.6710    Z=              0.0000  Tot=              1.7896
 Quadrupole moment (field-independent basis, Debye-Ang):
   XX=            -13.6588   YY=            -18.6981   ZZ=            -16.4257
   XY=              0.5160   XZ=             -0.0000   YZ=              0.0000

 Normal termination of Gaussian 16 at Mon Jan 31 11:55:49 2022.
