 Gaussian 16, Revision B.01,
 Gaussian 16:  ES64L-G16RevB.01 20-Dec-2017

 -------------------------------------
 #p SP mp2/aug-cc-pvtz density=current
 -------------------------------------

 -----
 title
 -----
 Symbolic Z-matrix:
 Charge =  0 Multiplicity = 1

                         Standard orientation:
 ---------------------------------------------------------------------
 Center     Atomic      Atomic             Coordinates (Angstroms)
 Number     Number       Type             X           Y           Z
 ---------------------------------------------------------------------
      1          1           0        1.755559   -0.155959   -0.000000
      2          8           0        0.890888   -0.596135   -0.000000
      3          7           0        0.000000    0.519585    0.000000
      4          8           0       -1.110333    0.160993    0.000000
 ---------------------------------------------------------------------

 SCF Done:  E(RHF) =  -204.724894568     A.U. after   13 cycles
 E2 =    -0.6963077083D+00 EUMP2 =    -0.20542120227655D+03

 The electronic state is 1-A'.
 Alpha  occ. eigenvalues --  -20.66549 -20.64002 -15.79718  -1.61102  -1.40251
 Alpha  occ. eigenvalues --   -0.94673  -0.78625  -0.73187  -0.68516  -0.62639
 Alpha  occ. eigenvalues --   -0.52908  -0.45967
 Alpha virt. eigenvalues --    0.02828   0.08339   0.09371   0.09763   0.12889
 Alpha virt. eigenvalues --    0.14406   0.15687   0.17228   0.18735   0.19642
 Alpha virt. eigenvalues --    0.20589   0.23335   0.25824   0.29682   0.30904

 Mulliken charges:
               1
     1  H    0.271634
     2  O   -0.272943
     3  N    0.180280
     4  O   -0.178972
 Sum of Mulliken charges =  -0.00000

 Dipole moment (field-independent basis, Debye):
    X=              1.7083    Y=              0.6628    Z=              0.0000  Tot=              1.8324
 Quadrupole moment (field-independent basis, Debye-Ang):
   XX=            -13.6555   YY=            -18.6984   ZZ=            -16.4419
   XY=              0.5481   XZ=              0.0000   YZ=             -0.0000

 Normal termination of Gaussian 16 at Mon Jan 31 11:39:47 2022.
