 Gaussian 16, Revision B.01,
 Gaussian 16:  ES64L-G16RevB.01 20-Dec-2017

 -------------------------------------
 #p SP mp2/aug-cc-pvtz density=current
 -------------------------------------

 -----
 title
 -----
 Symbolic Z-matrix:
 Charge =  0 Multiplicity = 1

                         Standard orientation:
 ---------------------------------------------------------------------
 Center     Atomic      Atomic             Coordinates (Angstroms)
 Number     Number       Type             X           Y           Z
 ---------------------------------------------------------------------
      1          1           0        1.763644   -0.132473   -0.000000
      2          8           0        0.904390   -0.583131   -0.000000
      3          7           0        0.000000    0.521672    0.000000
      4          8           0       -1.124846    0.143226    0.000000
 ---------------------------------------------------------------------

 SCF Done:  E(RHF) =  -204.721593138     A.U. after   13 cycles
 E2 =    -0.6996291623D+00 EUMP2 =    -0.20542122230020D+03

 The electronic state is 1-A'.
 Alpha  occ. eigenvalues --  -20.66514 -20.64470 -15.80032  -1.59485  -1.40263
 Alpha  occ. eigenvalues --   -0.95035  -0.78218  -0.72777  -0.67816  -0.62440
 Alpha  occ. eigenvalues --   -0.52793  -0.46379
 Alpha virt. eigenvalues --    0.02771   0.07749   0.09420   0.09749   0.12892
 Alpha virt. eigenvalues --    0.14324   0.15691   0.17198   0.18711   0.19677
 Alpha virt. eigenvalues --    0.20532   0.23358   0.25758   0.29586   0.30664

 Mulliken charges:
               1
     1  H    0.272609
     2  O   -0.268138
     3  N    0.178954
     4  O   -0.183426
 Sum of Mulliken charges =  -0.00000

 Dipole moment (field-independent basis, Debye):
    X=              1.8024    Y=              0.6493    Z=             -0.0000  Tot=              1.9158
 Quadrupole moment (field-independent basis, Debye-Ang):
   XX=            -13.6469   YY=            -18.6990   ZZ=            -16.4741
   XY=              0.6128   XZ=              0.0000   YZ=             -0.0000

 Normal termination of Gaussian 16 at Mon Jan 31 11:39:55 2022.
