 Gaussian 16, Revision B.01,
 Gaussian 16:  ES64L-G16RevB.01 20-Dec-2017

 -------------------------------------
 #p SP mp2/aug-cc-pvtz density=current
 -------------------------------------

 -----
 title
 -----
 Symbolic Z-matrix:
 Charge =  0 Multiplicity = 1

                         Standard orientation:
 ---------------------------------------------------------------------
 Center     Atomic      Atomic             Coordinates (Angstroms)
 Number     Number       Type             X           Y           Z
 ---------------------------------------------------------------------
      1          1           0        1.756329   -0.131359    0.000000
      2          8           0        0.896394   -0.580715    0.000000
      3          7           0       -0.000000    0.517708   -0.000000
      4          8           0       -1.115935    0.144140   -0.000000
 ---------------------------------------------------------------------

 SCF Done:  E(RHF) =  -204.724278672     A.U. after   13 cycles
 E2 =    -0.6970441071D+00 EUMP2 =    -0.20542132277923D+03

 The electronic state is 1-A'.
 Alpha  occ. eigenvalues --  -20.66295 -20.64399 -15.79731  -1.60349  -1.40571
 Alpha  occ. eigenvalues --   -0.94832  -0.78603  -0.73042  -0.68292  -0.62470
 Alpha  occ. eigenvalues --   -0.52853  -0.46188
 Alpha virt. eigenvalues --    0.02775   0.08170   0.09422   0.09759   0.12879
 Alpha virt. eigenvalues --    0.14326   0.15701   0.17195   0.18704   0.19669
 Alpha virt. eigenvalues --    0.20591   0.23395   0.25797   0.29611   0.31188

 Mulliken charges:
               1
     1  H    0.273070
     2  O   -0.263773
     3  N    0.175997
     4  O   -0.185294
 Sum of Mulliken charges =  -0.00000

 Dipole moment (field-independent basis, Debye):
    X=              1.8148    Y=              0.6310    Z=             -0.0000  Tot=              1.9214
 Quadrupole moment (field-independent basis, Debye-Ang):
   XX=            -13.6542   YY=            -18.6913   ZZ=            -16.4426
   XY=              0.5919   XZ=              0.0000   YZ=              0.0000

 Normal termination of Gaussian 16 at Mon Jan 31 11:39:31 2022.
