 Gaussian 16, Revision B.01,
 Gaussian 16:  ES64L-G16RevB.01 20-Dec-2017

 -------------------------------------
 #p SP mp2/aug-cc-pvtz density=current
 -------------------------------------

 -----
 title
 -----
 Symbolic Z-matrix:
 Charge =  0 Multiplicity = 1

                         Standard orientation:
 ---------------------------------------------------------------------
 Center     Atomic      Atomic             Coordinates (Angstroms)
 Number     Number       Type             X           Y           Z
 ---------------------------------------------------------------------
      1          1           0        1.756851   -0.145068   -0.000000
      2          8           0        0.893027   -0.586902   -0.000000
      3          7           0        0.000000    0.527107   -0.000000
      4          8           0       -1.112633    0.143817    0.000000
 ---------------------------------------------------------------------

 SCF Done:  E(RHF) =  -204.723362177     A.U. after   13 cycles
 E2 =    -0.6979108157D+00 EUMP2 =    -0.20542127299235D+03

 The electronic state is 1-A'.
 Alpha  occ. eigenvalues --  -20.66476 -20.64174 -15.79892  -1.60350  -1.40142
 Alpha  occ. eigenvalues --   -0.94839  -0.78452  -0.72920  -0.68167  -0.62428
 Alpha  occ. eigenvalues --   -0.52787  -0.46295
 Alpha virt. eigenvalues --    0.02804   0.08008   0.09404   0.09748   0.12886
 Alpha virt. eigenvalues --    0.14378   0.15690   0.17200   0.18735   0.19652
 Alpha virt. eigenvalues --    0.20568   0.23366   0.25838   0.29672   0.30780

 Mulliken charges:
               1
     1  H    0.270430
     2  O   -0.269622
     3  N    0.180447
     4  O   -0.181255
 Sum of Mulliken charges =  -0.00000

 Dipole moment (field-independent basis, Debye):
    X=              1.7597    Y=              0.6646    Z=             -0.0000  Tot=              1.8810
 Quadrupole moment (field-independent basis, Debye-Ang):
   XX=            -13.6769   YY=            -18.6712   ZZ=            -16.4530
   XY=              0.5740   XZ=              0.0000   YZ=             -0.0000

 Normal termination of Gaussian 16 at Mon Jan 31 11:40:21 2022.
