 Gaussian 16, Revision B.01,
 Gaussian 16:  ES64L-G16RevB.01 20-Dec-2017

 -------------------------------------
 #p SP mp2/aug-cc-pvtz density=current
 -------------------------------------

 -----
 title
 -----
 Symbolic Z-matrix:
 Charge =  0 Multiplicity = 1

                         Standard orientation:
 ---------------------------------------------------------------------
 Center     Atomic      Atomic             Coordinates (Angstroms)
 Number     Number       Type             X           Y           Z
 ---------------------------------------------------------------------
      1          1           0       -1.767565   -0.120729    0.000000
      2          8           0       -0.911051   -0.576572    0.000000
      3          7           0       -0.000000    0.522745   -0.000000
      4          8           0        1.131997    0.134262   -0.000000
 ---------------------------------------------------------------------

 SCF Done:  E(RHF) =  -204.719502129     A.U. after   13 cycles
 E2 =    -0.7013247338D+00 EUMP2 =    -0.20542082686324D+03

 The electronic state is 1-A'.
 Alpha  occ. eigenvalues --  -20.66497 -20.64697 -15.80188  -1.58721  -1.40249
 Alpha  occ. eigenvalues --   -0.95217  -0.78036  -0.72576  -0.67499  -0.62327
 Alpha  occ. eigenvalues --   -0.52717  -0.46577
 Alpha virt. eigenvalues --    0.02743   0.07452   0.09442   0.09743   0.12896
 Alpha virt. eigenvalues --    0.14284   0.15692   0.17184   0.18699   0.19695
 Alpha virt. eigenvalues --    0.20509   0.23369   0.25726   0.29539   0.30545

 Mulliken charges:
               1
     1  H    0.273042
     2  O   -0.265801
     3  N    0.178083
     4  O   -0.185324
 Sum of Mulliken charges =  -0.00000

 Dipole moment (field-independent basis, Debye):
    X=             -1.8469    Y=              0.6440    Z=              0.0000  Tot=              1.9560
 Quadrupole moment (field-independent basis, Debye-Ang):
   XX=            -13.6415   YY=            -18.6993   ZZ=            -16.4901
   XY=             -0.6454   XZ=              0.0000   YZ=              0.0000

 Normal termination of Gaussian 16 at Mon Jan 31 11:55:57 2022.
