 Gaussian 16, Revision B.01,
 Gaussian 16:  ES64L-G16RevB.01 20-Dec-2017

 -------------------------------------
 #p SP mp2/aug-cc-pvtz density=current
 -------------------------------------

 -----
 title
 -----
 Symbolic Z-matrix:
 Charge =  0 Multiplicity = 1

                         Standard orientation:
 ---------------------------------------------------------------------
 Center     Atomic      Atomic             Coordinates (Angstroms)
 Number     Number       Type             X           Y           Z
 ---------------------------------------------------------------------
      1          1           0        1.708166    0.445280    0.024983
      2          8           0        1.042136   -0.259733   -0.002765
      3          7           0       -0.172103    0.491356   -0.003489
      4          8           0       -1.105067   -0.225863    0.002695
 ---------------------------------------------------------------------

 SCF Done:  E(RHF) =  -204.723381817     A.U. after   13 cycles
 E2 =    -0.6979507008D+00 EUMP2 =    -0.20542133251822D+03

 The electronic state is 1-A.
 Alpha  occ. eigenvalues --  -20.66532 -20.64236 -15.79875  -1.60280  -1.40263
 Alpha  occ. eigenvalues --   -0.94854  -0.78413  -0.72980  -0.68159  -0.62540
 Alpha  occ. eigenvalues --   -0.52857  -0.46176
 Alpha virt. eigenvalues --    0.02799   0.08044   0.09396   0.09756   0.12886
 Alpha virt. eigenvalues --    0.14367   0.15690   0.17213   0.18722   0.19660
 Alpha virt. eigenvalues --    0.20557   0.23348   0.25793   0.29630   0.30790

 Mulliken charges:
               1
     1  H    0.272122
     2  O   -0.270532
     3  N    0.179677
     4  O   -0.181268
 Sum of Mulliken charges =  -0.00000

 Dipole moment (field-independent basis, Debye):
    X=              1.4399    Y=              1.1988    Z=              0.0430  Tot=              1.8741
 Quadrupole moment (field-independent basis, Debye-Ang):
   XX=            -14.5670   YY=            -17.7859   ZZ=            -16.4562
   XY=              2.0270   XZ=              0.0986   YZ=              0.0419

 Normal termination of Gaussian 16 at Mon Jan 31 11:56:51 2022.
