 Gaussian 16, Revision B.01,
 Gaussian 16:  ES64L-G16RevB.01 20-Dec-2017

 -------------------------------------
 #p SP mp2/aug-cc-pvtz density=current
 -------------------------------------

 -----
 title
 -----
 Symbolic Z-matrix:
 Charge =  0 Multiplicity = 1

                         Standard orientation:
 ---------------------------------------------------------------------
 Center     Atomic      Atomic             Coordinates (Angstroms)
 Number     Number       Type             X           Y           Z
 ---------------------------------------------------------------------
      1          1           0        1.762882   -0.157017    0.000000
      2          8           0        0.898912   -0.598566    0.000000
      3          7           0       -0.000000    0.523540    0.000000
      4          8           0       -1.119273    0.160095   -0.000000
 ---------------------------------------------------------------------

 SCF Done:  E(RHF) =  -204.722446306     A.U. after   13 cycles
 E2 =    -0.6988785184D+00 EUMP2 =    -0.20542132482475D+03

 The electronic state is 1-A'.
 Alpha  occ. eigenvalues --  -20.66765 -20.64077 -15.80021  -1.60225  -1.39953
 Alpha  occ. eigenvalues --   -0.94880  -0.78228  -0.72924  -0.68030  -0.62611
 Alpha  occ. eigenvalues --   -0.52853  -0.46158
 Alpha virt. eigenvalues --    0.02823   0.07920   0.09369   0.09752   0.12899
 Alpha virt. eigenvalues --    0.14403   0.15677   0.17231   0.18742   0.19651
 Alpha virt. eigenvalues --    0.20526   0.23296   0.25783   0.29656   0.30354

 Mulliken charges:
               1
     1  H    0.271212
     2  O   -0.277277
     3  N    0.183372
     4  O   -0.177307
 Sum of Mulliken charges =  -0.00000

 Dipole moment (field-independent basis, Debye):
    X=              1.6974    Y=              0.6814    Z=              0.0000  Tot=              1.8291
 Quadrupole moment (field-independent basis, Debye-Ang):
   XX=            -13.6493   YY=            -18.7061   ZZ=            -16.4733
   XY=              0.5693   XZ=              0.0000   YZ=             -0.0000

 Normal termination of Gaussian 16 at Mon Jan 31 11:39:39 2022.
