 Gaussian 16, Revision B.01,
 Gaussian 16:  ES64L-G16RevB.01 20-Dec-2017

 -------------------------------------
 #p SP mp2/aug-cc-pvtz density=current
 -------------------------------------

 -----
 title
 -----
 Symbolic Z-matrix:
 Charge =  0 Multiplicity = 1

                         Standard orientation:
 ---------------------------------------------------------------------
 Center     Atomic      Atomic             Coordinates (Angstroms)
 Number     Number       Type             X           Y           Z
 ---------------------------------------------------------------------
      1          1           0        1.757995   -0.137795    0.000000
      2          8           0        0.897036   -0.585186    0.000000
      3          7           0        0.000000    0.519162   -0.000000
      4          8           0       -1.116785    0.148144   -0.000000
 ---------------------------------------------------------------------

 SCF Done:  E(RHF) =  -204.723847523     A.U. after   13 cycles
 E2 =    -0.6974992054D+00 EUMP2 =    -0.20542134672876D+03

 The electronic state is 1-A'.
 Alpha  occ. eigenvalues --  -20.66413 -20.64319 -15.79803  -1.60312  -1.40418
 Alpha  occ. eigenvalues --   -0.94842  -0.78508  -0.73011  -0.68222  -0.62508
 Alpha  occ. eigenvalues --   -0.52856  -0.46182
 Alpha virt. eigenvalues --    0.02787   0.08107   0.09409   0.09758   0.12885
 Alpha virt. eigenvalues --    0.14345   0.15695   0.17204   0.18714   0.19664
 Alpha virt. eigenvalues --    0.20574   0.23371   0.25794   0.29623   0.30989

 Mulliken charges:
               1
     1  H    0.272605
     2  O   -0.267144
     3  N    0.177841
     4  O   -0.183302
 Sum of Mulliken charges =  -0.00000

 Dipole moment (field-independent basis, Debye):
    X=              1.7855    Y=              0.6431    Z=              0.0000  Tot=              1.8978
 Quadrupole moment (field-independent basis, Debye-Ang):
   XX=            -13.6528   YY=            -18.6950   ZZ=            -16.4503
   XY=              0.5861   XZ=             -0.0000   YZ=              0.0000

 Normal termination of Gaussian 16 at Sun Jan 30 15:50:43 2022.
