 Gaussian 16, Revision B.01,
 Gaussian 16:  ES64L-G16RevB.01 20-Dec-2017

 -------------------------------------
 #p SP mp2/aug-cc-pvtz density=current
 -------------------------------------

 -----
 title
 -----
 Symbolic Z-matrix:
 Charge =  0 Multiplicity = 1

                         Standard orientation:
 ---------------------------------------------------------------------
 Center     Atomic      Atomic             Coordinates (Angstroms)
 Number     Number       Type             X           Y           Z
 ---------------------------------------------------------------------
      1          1           0        1.755928   -0.136473    0.000000
      2          8           0        0.898018   -0.589683    0.000000
      3          7           0        0.000000    0.520306   -0.000000
      4          8           0       -1.117509    0.151474   -0.000000
 ---------------------------------------------------------------------

 SCF Done:  E(RHF) =  -204.723317399     A.U. after   13 cycles
 E2 =    -0.6980300334D+00 EUMP2 =    -0.20542134743243D+03

 The electronic state is 1-A'.
 Alpha  occ. eigenvalues --  -20.66530 -20.64261 -15.79873  -1.60288  -1.40295
 Alpha  occ. eigenvalues --   -0.94824  -0.78396  -0.73003  -0.68164  -0.62583
 Alpha  occ. eigenvalues --   -0.52865  -0.46183
 Alpha virt. eigenvalues --    0.02803   0.08037   0.09392   0.09749   0.12882
 Alpha virt. eigenvalues --    0.14365   0.15692   0.17220   0.18728   0.19650
 Alpha virt. eigenvalues --    0.20554   0.23353   0.25767   0.29639   0.30778

 Mulliken charges:
               1
     1  H    0.273156
     2  O   -0.270669
     3  N    0.179209
     4  O   -0.181696
 Sum of Mulliken charges =  -0.00000

 Dipole moment (field-independent basis, Debye):
    X=              1.7493    Y=              0.6640    Z=              0.0000  Tot=              1.8711
 Quadrupole moment (field-independent basis, Debye-Ang):
   XX=            -13.6830   YY=            -18.6938   ZZ=            -16.4574
   XY=              0.6065   XZ=             -0.0000   YZ=             -0.0000

 Normal termination of Gaussian 16 at Sun Jan 30 15:51:16 2022.
