 Gaussian 16, Revision B.01,
 Gaussian 16:  ES64L-G16RevB.01 20-Dec-2017

 -------------------------------------
 #p SP mp2/aug-cc-pvtz density=current
 -------------------------------------

 -----
 title
 -----
 Symbolic Z-matrix:
 Charge =  0 Multiplicity = 1

                         Standard orientation:
 ---------------------------------------------------------------------
 Center     Atomic      Atomic             Coordinates (Angstroms)
 Number     Number       Type             X           Y           Z
 ---------------------------------------------------------------------
      1          1           0        1.766869   -0.159777    0.000000
      2          8           0        0.896991   -0.589570    0.000000
      3          7           0        0.000000    0.521249   -0.000000
      4          8           0       -1.117849    0.153450   -0.000000
 ---------------------------------------------------------------------

 SCF Done:  E(RHF) =  -204.723506685     A.U. after   13 cycles
 E2 =    -0.6978202568D+00 EUMP2 =    -0.20542132694140D+03

 The electronic state is 1-A'.
 Alpha  occ. eigenvalues --  -20.66534 -20.64191 -15.79883  -1.60263  -1.40202
 Alpha  occ. eigenvalues --   -0.94912  -0.78451  -0.72937  -0.68137  -0.62463
 Alpha  occ. eigenvalues --   -0.52839  -0.46161
 Alpha virt. eigenvalues --    0.02792   0.08059   0.09403   0.09770   0.12903
 Alpha virt. eigenvalues --    0.14363   0.15684   0.17198   0.18713   0.19679
 Alpha virt. eigenvalues --    0.20567   0.23334   0.25840   0.29625   0.30792

 Mulliken charges:
               1
     1  H    0.270176
     2  O   -0.270263
     3  N    0.180602
     4  O   -0.180514
 Sum of Mulliken charges =  -0.00000

 Dipole moment (field-independent basis, Debye):
    X=              1.7694    Y=              0.6387    Z=              0.0000  Tot=              1.8811
 Quadrupole moment (field-independent basis, Debye-Ang):
   XX=            -13.5897   YY=            -18.7076   ZZ=            -16.4592
   XY=              0.5273   XZ=             -0.0000   YZ=             -0.0000

 Normal termination of Gaussian 16 at Mon Jan 31 11:40:13 2022.
