 Gaussian 16, Revision B.01,
 Gaussian 16:  ES64L-G16RevB.01 20-Dec-2017

 -------------------------------------
 #p SP mp2/aug-cc-pvtz density=current
 -------------------------------------

 -----
 title
 -----
 Symbolic Z-matrix:
 Charge =  0 Multiplicity = 1

                         Standard orientation:
 ---------------------------------------------------------------------
 Center     Atomic      Atomic             Coordinates (Angstroms)
 Number     Number       Type             X           Y           Z
 ---------------------------------------------------------------------
      1          1           0       -1.744389   -0.113399   -0.000000
      2          8           0       -0.899100   -0.589735   -0.000000
      3          7           0        0.000000    0.519377    0.000000
      4          8           0        1.117149    0.149455    0.000000
 ---------------------------------------------------------------------

 SCF Done:  E(RHF) =  -204.722968729     A.U. after   13 cycles
 E2 =    -0.6982711400D+00 EUMP2 =    -0.20542123986912D+03

 The electronic state is 1-A'.
 Alpha  occ. eigenvalues --  -20.66528 -20.64325 -15.79866  -1.60316  -1.40387
 Alpha  occ. eigenvalues --   -0.94740  -0.78341  -0.73072  -0.68192  -0.62691
 Alpha  occ. eigenvalues --   -0.52889  -0.46208
 Alpha virt. eigenvalues --    0.02813   0.08012   0.09381   0.09728   0.12861
 Alpha virt. eigenvalues --    0.14367   0.15701   0.17244   0.18742   0.19621
 Alpha virt. eigenvalues --    0.20542   0.23373   0.25697   0.29656   0.30756

 Mulliken charges:
               1
     1  H    0.276348
     2  O   -0.271222
     3  N    0.177712
     4  O   -0.182838
 Sum of Mulliken charges =  -0.00000

 Dipole moment (field-independent basis, Debye):
    X=             -1.7281    Y=              0.6888    Z=             -0.0000  Tot=              1.8603
 Quadrupole moment (field-independent basis, Debye-Ang):
   XX=            -13.7798   YY=            -18.6771   ZZ=            -16.4555
   XY=             -0.6832   XZ=             -0.0000   YZ=             -0.0000

 Normal termination of Gaussian 16 at Mon Jan 31 11:56:06 2022.
