 Gaussian 16, Revision B.01,
 Gaussian 16:  ES64L-G16RevB.01 20-Dec-2017

 -------------------------------------
 #p SP mp2/aug-cc-pvtz density=current
 -------------------------------------

 -----
 title
 -----
 Symbolic Z-matrix:
 Charge =  0 Multiplicity = 1

                         Standard orientation:
 ---------------------------------------------------------------------
 Center     Atomic      Atomic             Coordinates (Angstroms)
 Number     Number       Type             X           Y           Z
 ---------------------------------------------------------------------
      1          1           0        1.707457    0.444528    0.049958
      2          8           0        1.042192   -0.259569   -0.005531
      3          7           0       -0.172147    0.491357   -0.006967
      4          8           0       -1.104995   -0.225934    0.005383
 ---------------------------------------------------------------------

 SCF Done:  E(RHF) =  -204.723333438     A.U. after   13 cycles
 E2 =    -0.6979328237D+00 EUMP2 =    -0.20542126626155D+03

 The electronic state is 1-A.
 Alpha  occ. eigenvalues --  -20.66536 -20.64231 -15.79873  -1.60281  -1.40261
 Alpha  occ. eigenvalues --   -0.94854  -0.78411  -0.72980  -0.68170  -0.62527
 Alpha  occ. eigenvalues --   -0.52859  -0.46176
 Alpha virt. eigenvalues --    0.02799   0.08041   0.09396   0.09758   0.12876
 Alpha virt. eigenvalues --    0.14373   0.15691   0.17214   0.18721   0.19658
 Alpha virt. eigenvalues --    0.20555   0.23353   0.25801   0.29618   0.30808

 Mulliken charges:
               1
     1  H    0.272068
     2  O   -0.270573
     3  N    0.179657
     4  O   -0.181152
 Sum of Mulliken charges =  -0.00000

 Dipole moment (field-independent basis, Debye):
    X=              1.4376    Y=              1.1975    Z=              0.0860  Tot=              1.8730
 Quadrupole moment (field-independent basis, Debye-Ang):
   XX=            -14.5726   YY=            -17.7880   ZZ=            -16.4508
   XY=              2.0236   XZ=              0.1971   YZ=              0.0836

 Normal termination of Gaussian 16 at Mon Jan 31 12:05:23 2022.
