 Gaussian 16, Revision B.01,
 Gaussian 16:  ES64L-G16RevB.01 20-Dec-2017

 -------------------------------------
 #p SP mp2/aug-cc-pvtz density=current
 -------------------------------------

 -----
 title
 -----
 Symbolic Z-matrix:
 Charge =  0 Multiplicity = 1

                         Standard orientation:
 ---------------------------------------------------------------------
 Center     Atomic      Atomic             Coordinates (Angstroms)
 Number     Number       Type             X           Y           Z
 ---------------------------------------------------------------------
      1          1           0        1.763289   -0.151985   -0.000000
      2          8           0        0.897327   -0.589614    0.000000
      3          7           0        0.000000    0.520933   -0.000000
      4          8           0       -1.117738    0.152796    0.000000
 ---------------------------------------------------------------------

 SCF Done:  E(RHF) =  -204.723461001     A.U. after   13 cycles
 E2 =    -0.6978867485D+00 EUMP2 =    -0.20542134774986D+03

 The electronic state is 1-A'.
 Alpha  occ. eigenvalues --  -20.66532 -20.64215 -15.79879  -1.60271  -1.40233
 Alpha  occ. eigenvalues --   -0.94882  -0.78432  -0.72959  -0.68146  -0.62504
 Alpha  occ. eigenvalues --   -0.52848  -0.46168
 Alpha virt. eigenvalues --    0.02796   0.08052   0.09400   0.09763   0.12896
 Alpha virt. eigenvalues --    0.14364   0.15687   0.17205   0.18718   0.19670
 Alpha virt. eigenvalues --    0.20562   0.23340   0.25815   0.29629   0.30789

 Mulliken charges:
               1
     1  H    0.271147
     2  O   -0.270384
     3  N    0.180149
     4  O   -0.180912
 Sum of Mulliken charges =  -0.00000

 Dipole moment (field-independent basis, Debye):
    X=              1.7628    Y=              0.6472    Z=             -0.0000  Tot=              1.8779
 Quadrupole moment (field-independent basis, Debye-Ang):
   XX=            -13.6204   YY=            -18.7034   ZZ=            -16.4586
   XY=              0.5540   XZ=             -0.0000   YZ=              0.0000

 Normal termination of Gaussian 16 at Sun Jan 30 15:51:25 2022.
