 Gaussian 16, Revision B.01,
 Gaussian 16:  ES64L-G16RevB.01 20-Dec-2017

 -------------------------------------
 #p SP mp2/aug-cc-pvtz density=current
 -------------------------------------

 -----
 title
 -----
 Symbolic Z-matrix:
 Charge =  0 Multiplicity = 1

                         Standard orientation:
 ---------------------------------------------------------------------
 Center     Atomic      Atomic             Coordinates (Angstroms)
 Number     Number       Type             X           Y           Z
 ---------------------------------------------------------------------
      1          1           0       -2.248252    0.433566   -0.030522
      2          8           0       -1.597595   -0.284425   -0.023590
      3          8           0       -0.400681    0.541210    0.026546
      4          7           0        0.664130   -0.455795    0.040990
      5          8           0        1.698195    0.087841   -0.035007
 ---------------------------------------------------------------------

 SCF Done:  E(RHF) =  -279.501537737     A.U. after   16 cycles
 E2 =    -0.9449698173D+00 EUMP2 =    -0.28044650755404D+03

 The electronic state is 1-A.
 Alpha  occ. eigenvalues --  -20.69070 -20.68442 -20.66000 -15.81275  -1.62405
 Alpha  occ. eigenvalues --   -1.49570  -1.25438  -0.94806  -0.77275  -0.75915
 Alpha  occ. eigenvalues --   -0.71216  -0.67897  -0.62058  -0.58934  -0.48522
 Alpha  occ. eigenvalues --   -0.47248
 Alpha virt. eigenvalues --    0.02963   0.07151   0.08603   0.10172   0.13208
 Alpha virt. eigenvalues --    0.13568   0.14410   0.15455   0.17802   0.19409
 Alpha virt. eigenvalues --    0.19946   0.20669   0.22094   0.23430   0.23877

 Mulliken charges:
               1
     1  H    0.250385
     2  O   -0.201542
     3  O   -0.147677
     4  N    0.291603
     5  O   -0.192769
 Sum of Mulliken charges =  -0.00000

 Dipole moment (field-independent basis, Debye):
    X=             -1.2149    Y=              0.7902    Z=             -0.0112  Tot=              1.4493
 Quadrupole moment (field-independent basis, Debye-Ang):
   XX=            -17.9825   YY=            -23.0931   ZZ=            -22.0167
   XY=             -2.7847   XZ=              0.1644   YZ=              0.0641

 Normal termination of Gaussian 16 at Mon Feb 14 22:15:54 2022.
