 Gaussian 16, Revision B.01,
 Gaussian 16:  ES64L-G16RevB.01 20-Dec-2017

 -------------------------------------
 #p SP mp2/aug-cc-pvtz density=current
 -------------------------------------

 -----
 title
 -----
 Symbolic Z-matrix:
 Charge =  0 Multiplicity = 1

                         Standard orientation:
 ---------------------------------------------------------------------
 Center     Atomic      Atomic             Coordinates (Angstroms)
 Number     Number       Type             X           Y           Z
 ---------------------------------------------------------------------
      1          1           0        1.503705    1.736902   -0.000000
      2          8           0        1.450535    0.769387   -0.000000
      3          8           0       -0.000000    0.656516   -0.000000
      4          7           0       -0.257030   -0.779446    0.000000
      5          8           0       -1.413596   -0.961001    0.000000
 ---------------------------------------------------------------------

 SCF Done:  E(RHF) =  -279.501607365     A.U. after   14 cycles
 E2 =    -0.9449054051D+00 EUMP2 =    -0.28044651277044D+03

 The electronic state is 1-A'.
 Alpha  occ. eigenvalues --  -20.69016 -20.68482 -20.66075 -15.81355  -1.62396
 Alpha  occ. eigenvalues --   -1.49508  -1.25547  -0.94765  -0.77107  -0.76008
 Alpha  occ. eigenvalues --   -0.71145  -0.68271  -0.62105  -0.58768  -0.48501
 Alpha  occ. eigenvalues --   -0.47203
 Alpha virt. eigenvalues --    0.02964   0.07140   0.08599   0.10233   0.13368
 Alpha virt. eigenvalues --    0.13370   0.14378   0.15372   0.17835   0.19438
 Alpha virt. eigenvalues --    0.20005   0.20591   0.22060   0.23507   0.23719

 Mulliken charges:
               1
     1  H    0.253268
     2  O   -0.206125
     3  O   -0.143883
     4  N    0.287729
     5  O   -0.190989
 Sum of Mulliken charges =  -0.00000

 Dipole moment (field-independent basis, Debye):
    X=              0.4491    Y=              1.3768    Z=             -0.0000  Tot=              1.4482
 Quadrupole moment (field-independent basis, Debye-Ang):
   XX=            -22.7114   YY=            -18.3830   ZZ=            -22.0148
   XY=              3.1670   XZ=              0.0000   YZ=              0.0000

 Normal termination of Gaussian 16 at Mon Feb 14 22:13:11 2022.
