 Gaussian 16, Revision B.01,
 Gaussian 16:  ES64L-G16RevB.01 20-Dec-2017

 -------------------------------------
 #p SP mp2/aug-cc-pvtz density=current
 -------------------------------------

 -----
 title
 -----
 Symbolic Z-matrix:
 Charge =  0 Multiplicity = 1

                         Standard orientation:
 ---------------------------------------------------------------------
 Center     Atomic      Atomic             Coordinates (Angstroms)
 Number     Number       Type             X           Y           Z
 ---------------------------------------------------------------------
      1          1           0        1.579363    1.673756    0.000000
      2          8           0        1.475739    0.710337    0.000000
      3          8           0        0.000000    0.672830    0.000000
      4          7           0       -0.274390   -0.759916   -0.000000
      5          8           0       -1.433068   -0.927460   -0.000000
 ---------------------------------------------------------------------

 SCF Done:  E(RHF) =  -279.499700407     A.U. after   14 cycles
 E2 =    -0.9468058028D+00 EUMP2 =    -0.28044650620994D+03

 The electronic state is 1-A'.
 Alpha  occ. eigenvalues --  -20.69207 -20.68466 -20.66181 -15.81324  -1.62347
 Alpha  occ. eigenvalues --   -1.48747  -1.25817  -0.94778  -0.77063  -0.75752
 Alpha  occ. eigenvalues --   -0.70998  -0.67939  -0.61843  -0.58639  -0.48896
 Alpha  occ. eigenvalues --   -0.47296
 Alpha virt. eigenvalues --    0.02958   0.07165   0.08537   0.10161   0.13279
 Alpha virt. eigenvalues --    0.13398   0.14397   0.15444   0.17830   0.19437
 Alpha virt. eigenvalues --    0.19989   0.20607   0.21606   0.22877   0.23721

 Mulliken charges:
               1
     1  H    0.251473
     2  O   -0.204169
     3  O   -0.148163
     4  N    0.293425
     5  O   -0.192565
 Sum of Mulliken charges =   0.00000

 Dipole moment (field-independent basis, Debye):
    X=              0.5121    Y=              1.3420    Z=              0.0000  Tot=              1.4364
 Quadrupole moment (field-independent basis, Debye-Ang):
   XX=            -22.3519   YY=            -18.6942   ZZ=            -22.0397
   XY=              3.3217   XZ=              0.0000   YZ=             -0.0000

 Normal termination of Gaussian 16 at Mon Feb 14 22:10:46 2022.
