 Gaussian 16, Revision B.01,
 Gaussian 16:  ES64L-G16RevB.01 20-Dec-2017

 -------------------------------------
 #p SP mp2/aug-cc-pvtz density=current
 -------------------------------------

 -----
 title
 -----
 Symbolic Z-matrix:
 Charge =  0 Multiplicity = 1

                         Standard orientation:
 ---------------------------------------------------------------------
 Center     Atomic      Atomic             Coordinates (Angstroms)
 Number     Number       Type             X           Y           Z
 ---------------------------------------------------------------------
      1          1           0        1.545012    1.708671   -0.000000
      2          8           0        1.453850    0.743994   -0.000000
      3          8           0       -0.000000    0.688230   -0.000000
      4          7           0       -0.261633   -0.780426    0.000000
      5          8           0       -1.418048   -0.962934    0.000000
 ---------------------------------------------------------------------

 SCF Done:  E(RHF) =  -279.498245615     A.U. after   14 cycles
 E2 =    -0.9482737121D+00 EUMP2 =    -0.28044651932712D+03

 The electronic state is 1-A'.
 Alpha  occ. eigenvalues --  -20.69207 -20.68531 -20.65594 -15.81817  -1.62312
 Alpha  occ. eigenvalues --   -1.49084  -1.24460  -0.95078  -0.77023  -0.75560
 Alpha  occ. eigenvalues --   -0.70665  -0.68101  -0.62199  -0.58760  -0.48166
 Alpha  occ. eigenvalues --   -0.47079
 Alpha virt. eigenvalues --    0.03053   0.06743   0.08530   0.10132   0.13375
 Alpha virt. eigenvalues --    0.13416   0.14477   0.15518   0.17898   0.19394
 Alpha virt. eigenvalues --    0.19965   0.20126   0.22164   0.23680   0.23702

 Mulliken charges:
               1
     1  H    0.249922
     2  O   -0.203852
     3  O   -0.168320
     4  N    0.301118
     5  O   -0.178868
 Sum of Mulliken charges =  -0.00000

 Dipole moment (field-independent basis, Debye):
    X=              0.3599    Y=              1.1683    Z=             -0.0000  Tot=              1.2225
 Quadrupole moment (field-independent basis, Debye-Ang):
   XX=            -22.4130   YY=            -18.4740   ZZ=            -22.0573
   XY=              3.3180   XZ=              0.0000   YZ=             -0.0000

 Normal termination of Gaussian 16 at Mon Feb 14 22:11:23 2022.
