 Gaussian 16, Revision B.01,
 Gaussian 16:  ES64L-G16RevB.01 20-Dec-2017

 ---------------------------------------
 #p freq mp2/aug-cc-pvtz density=current
 ---------------------------------------

 -----
 title
 -----
 Symbolic Z-matrix:
 Charge =  0 Multiplicity = 1

                         Standard orientation:
 ---------------------------------------------------------------------
 Center     Atomic      Atomic             Coordinates (Angstroms)
 Number     Number       Type             X           Y           Z
 ---------------------------------------------------------------------
      1          1           0        1.104280   -0.592134    0.000000
      2          8           0        1.308207    0.371910    0.000000
      3          8           0        0.000000    0.915913    0.000000
      4          7           0       -0.988738   -0.048378    0.000000
      5          8           0       -0.581097   -1.171476    0.000000
 ---------------------------------------------------------------------

 SCF Done:  E(RHF) =  -279.506969446     A.U. after   14 cycles
 E2 =    -0.9482218774D+00 EUMP2 =    -0.28045519132375D+03
 E2 =    -0.9482218774D+00 EUMP2 =    -0.28045519132375D+03

 The electronic state is 1-A'.
 Alpha  occ. eigenvalues --  -20.71987 -20.68741 -20.66734 -15.82588  -1.64595
 Alpha  occ. eigenvalues --   -1.50855  -1.29250  -0.96091  -0.83652  -0.75964
 Alpha  occ. eigenvalues --   -0.74140  -0.63596  -0.62106  -0.61941  -0.50506
 Alpha  occ. eigenvalues --   -0.49581
 Alpha virt. eigenvalues --    0.03518   0.06020   0.09513   0.10048   0.11964
 Alpha virt. eigenvalues --    0.12281   0.14959   0.15298   0.17750   0.18020
 Alpha virt. eigenvalues --    0.18972   0.21106   0.21680   0.24636   0.24729

 Mulliken charges:
               1
     1  H    0.276242
     2  O   -0.273085
     3  O    0.040816
     4  N    0.152140
     5  O   -0.196113
 Sum of Mulliken charges =  -0.00000

 Dipole moment (field-independent basis, Debye):
    X=              0.0689    Y=             -1.0806    Z=              0.0000  Tot=              1.0828
 Quadrupole moment (field-independent basis, Debye-Ang):
   XX=            -23.3787   YY=            -22.9583   ZZ=            -21.9201
   XY=             -1.9518   XZ=              0.0000   YZ=              0.0000

  Exact polarizability:  30.754   4.198  29.861   0.000   0.000  17.591
 Approx polarizability:  24.361   0.592  27.623  -0.000  -0.000  15.500

                      1                      2                      3
                     A"                     A'                     A"
 Frequencies --    353.9718               398.6787               524.3943
 Red. masses --      1.5636                 7.0458                 2.8862
 Frc consts  --      0.1154                 0.6598                 0.4676
 IR Inten    --     62.3949                 7.8918                25.5982

                      4                      5                      6
                     A'                     A'                     A'
 Frequencies --    714.0409               853.7295               984.1034
 Red. masses --     13.3651                11.8224                10.2281
 Frc consts  --      4.0148                 5.0769                 5.8361
 IR Inten    --    220.0537                30.5113                12.2029

                      7                      8                      9
                     A'                     A'                     A'
 Frequencies --   1442.9463              1572.8971              3483.2552
 Red. masses --      1.3342                 5.7739                 1.0636
 Frc consts  --      1.6367                 8.4162                 7.6031
 IR Inten    --     79.6385               151.2742                43.2534

 - Thermochemistry -
 -------------------
 Temperature   298.150 Kelvin.  Pressure   1.00000 Atm.
 Atom     1 has atomic number  1 and mass   1.00783

 Molecular mass:    62.99564 amu.
 Principal axes and moments of inertia in atomic units:
                           1         2         3
     Eigenvalues --    83.94081 221.87021 305.81102
           X            0.79103  -0.61178   0.00000
           Y            0.61178   0.79103   0.00000
           Z            0.00000   0.00000   1.00000
 This molecule is an asymmetric top.
 Rotational symmetry number  1.
 Rotational temperatures (Kelvin)      1.03185     0.39038     0.28323
 Rotational constants (GHZ):          21.50016     8.13422     5.90149
 Zero-point vibrational energy      61775.3 (Joules/Mol)
                                   14.76464 (Kcal/Mol)
 Warning -- explicit consideration of   3 degrees of freedom as
           vibrations may cause significant error
 Vibrational temperatures:    509.29   573.61   754.49  1027.35  1228.33
          (Kelvin)           1415.91  2076.08  2263.05  5011.63

 Zero-point correction=                           0.023529 (Hartree/Particle)
 Thermal correction to Energy=                    0.027456
 Thermal correction to Enthalpy=                  0.028400
 Thermal correction to Gibbs Free Energy=        -0.002434
 Sum of electronic and zero-point Energies=           -280.431662
 Sum of electronic and thermal Energies=              -280.427735
 Sum of electronic and thermal Enthalpies=            -280.426791
 Sum of electronic and thermal Free Energies=         -280.457625

                     E (Thermal)             CV                S
                      KCal/Mol        Cal/Mol-Kelvin    Cal/Mol-Kelvin
 Total                   17.229             12.111             64.896
 Electronic               0.000              0.000              0.000
 Translational            0.889              2.981             38.341
 Rotational               0.889              2.981             23.259
 Vibrational             15.452              6.149              3.297
 Vibration     1          0.730              1.567              1.148
 Vibration     2          0.765              1.473              0.968
 Vibration     3          0.879              1.196              0.600

                       ! Non-Optimized Parameters !

 1\1\GINC-N2174\Freq\RMP2-FC\Aug-CC-pVTZ\H1N1O3\CGAVINH\06-Mar-2022\1\\
 #p freq mp2/aug-cc-pvtz density=current\\title\\0,1\H\O,1,r1\O,2,r2,1,
 a1\N,3,r3,2,a2,1,d1,0\O,4,r4,3,a3,2,d2,0\\r1=0.98537664\r2=1.41680798\
 r3=1.38110764\r4=1.19478846\a1=100.6355057\a2=113.13777052\a3=114.3339
 2022\d1=0.\d2=0.\\Version=ES64L-G16RevB.01\State=1-A'\HF=-279.5069694\
 MP2=-280.4551913\RMSD=4.250e-09\RMSF=1.711e-03\ZeroPoint=0.023529\Ther
 mal=0.0274562\Dipole=-0.1145184,0.,-0.4103176\DipoleDeriv=0.3170228,0.
 ,0.0382606,0.,0.2975726,0.,-0.0276577,0.,0.2009933,-0.5276788,0.,0.291

 Normal termination of Gaussian 16 at Sun Mar  6 19:03:34 2022.
