 Gaussian 16, Revision B.01,
 Gaussian 16:  ES64L-G16RevB.01 20-Dec-2017

 ---------------------------------------
 #p freq mp2/aug-cc-pvtz density=current
 ---------------------------------------

 -----
 title
 -----
 Symbolic Z-matrix:
 Charge =  0 Multiplicity = 1

                         Standard orientation:
 ---------------------------------------------------------------------
 Center     Atomic      Atomic             Coordinates (Angstroms)
 Number     Number       Type             X           Y           Z
 ---------------------------------------------------------------------
      1          1           0        2.240576    0.425357    0.149650
      2          8           0        1.599261   -0.282549   -0.013131
      3          8           0        0.400207    0.541490   -0.017433
      4          7           0       -0.663064   -0.456966    0.006856
      5          8           0       -1.699359    0.087735    0.005860
 ---------------------------------------------------------------------

 SCF Done:  E(RHF) =  -279.501787095     A.U. after   16 cycles
 E2 =    -0.9450822979D+00 EUMP2 =    -0.28044686939273D+03
 E2 =    -0.9450822979D+00 EUMP2 =    -0.28044686939273D+03

 The electronic state is 1-A.
 Alpha  occ. eigenvalues --  -20.69102 -20.68427 -20.66011 -15.81273  -1.62403
 Alpha  occ. eigenvalues --   -1.49582  -1.25443  -0.94809  -0.77256  -0.75943
 Alpha  occ. eigenvalues --   -0.71270  -0.67889  -0.61998  -0.58891  -0.48668
 Alpha  occ. eigenvalues --   -0.47182
 Alpha virt. eigenvalues --    0.02959   0.07165   0.08593   0.10175   0.13256
 Alpha virt. eigenvalues --    0.13494   0.14393   0.15445   0.17814   0.19411
 Alpha virt. eigenvalues --    0.19933   0.20658   0.22080   0.23537   0.23728

 Mulliken charges:
               1
     1  H    0.250094
     2  O   -0.201673
     3  O   -0.147044
     4  N    0.291971
     5  O   -0.193348
 Sum of Mulliken charges =  -0.00000

 Dipole moment (field-independent basis, Debye):
    X=              1.2046    Y=              0.7734    Z=              0.2840  Tot=              1.4594
 Quadrupole moment (field-independent basis, Debye-Ang):
   XX=            -18.0742   YY=            -23.1178   ZZ=            -21.9463
   XY=              2.7335   XZ=              0.7479   YZ=              0.2284

  Exact polarizability:  41.696   0.956  22.508   0.148   0.028  17.961
 Approx polarizability:  31.929  -1.152  20.555   0.128   0.107  15.567

 ******    1 imaginary frequencies (negative Signs) ******

                      1                      2                      3
                      A                      A                      A
 Frequencies --   -259.8440               228.2175               342.9324
 Red. masses --      1.1413                10.6086                 8.6451
 Frc consts  --      0.0454                 0.3255                 0.5990
 IR Inten    --    125.5239                 0.8530                 4.8978

                      4                      5                      6
                      A                      A                      A
 Frequencies --    452.7891               785.9867               966.2772
 Red. masses --     12.1758                12.9477                15.3394
 Frc consts  --      1.4708                 4.7127                 8.4385
 IR Inten    --    196.6745               169.6057                23.9542

                      7                      8                      9
                      A                      A                      A
 Frequencies --   1371.7628              1677.2488              3778.1710
 Red. masses --      1.1318                13.2585                 1.0676
 Frc consts  --      1.2548                21.9755                 8.9787
 IR Inten    --    150.4056               141.0583                81.7268

 - Thermochemistry -
 -------------------
 Temperature   298.150 Kelvin.  Pressure   1.00000 Atm.
 Atom     1 has atomic number  1 and mass   1.00783

 Molecular mass:    62.99564 amu.
 Principal axes and moments of inertia in atomic units:
                           1         2         3
     Eigenvalues --    32.90174 360.10369 392.79530
           X            0.99994   0.01043   0.00342
           Y           -0.01045   0.99992   0.00736
           Z           -0.00334  -0.00739   0.99997
 This molecule is an asymmetric top.
 Rotational symmetry number  1.
 Rotational temperatures (Kelvin)      2.63250     0.24052     0.22051
 Rotational constants (GHZ):          54.85245     5.01173     4.59461
    1 imaginary frequencies ignored.
 Zero-point vibrational energy      57441.0 (Joules/Mol)
                                   13.72873 (Kcal/Mol)
 Warning -- explicit consideration of   3 degrees of freedom as
           vibrations may cause significant error
 Vibrational temperatures:    328.35   493.40   651.46  1130.86  1390.26
          (Kelvin)           1973.66  2413.19  5435.95

 Zero-point correction=                           0.021878 (Hartree/Particle)
 Thermal correction to Energy=                    0.025994
 Thermal correction to Enthalpy=                  0.026938
 Thermal correction to Gibbs Free Energy=        -0.004244
 Sum of electronic and zero-point Energies=           -280.424991
 Sum of electronic and thermal Energies=              -280.420875
 Sum of electronic and thermal Enthalpies=            -280.419931
 Sum of electronic and thermal Free Energies=         -280.451113

                     E (Thermal)             CV                S
                      KCal/Mol        Cal/Mol-Kelvin    Cal/Mol-Kelvin
 Total                   16.312             11.950             65.629
 Electronic               0.000              0.000              0.000
 Translational            0.889              2.981             38.341
 Rotational               0.889              2.981             23.058
 Vibrational             14.534              5.988              4.231
 Vibration     1          0.651              1.798              1.893
 Vibration     2          0.722              1.590              1.198
 Vibration     3          0.811              1.355              0.787

                       ! Non-Optimized Parameters !

 1\1\GINC-N2125\Freq\RMP2-FC\Aug-CC-pVTZ\H1N1O3\CGAVINH\21-Feb-2022\1\\
 #p freq mp2/aug-cc-pvtz density=current\\title\\0,1\H\O,1,r1\O,2,r2,1,
 a1\N,3,r3,2,a2,1,d1,0\O,4,r4,3,a3,2,d2,0\\r1=0.96897556\r2=1.45491931\
 r3=1.45878406\r4=1.17072885\a1=97.59494903\a2=102.29752444\a3=109.0695
 5123\d1=190.7480916\d2=180.\\Version=ES64L-G16RevB.01\State=1-A\HF=-27
 9.5017871\MP2=-280.4468694\RMSD=5.104e-09\RMSF=5.007e-04\ZeroPoint=0.0
 218781\Thermal=0.0259943\Dipole=-0.146538,-0.0216955,-0.554745\DipoleD
 eriv=0.2657187,0.0016275,0.0480235,0.0018527,0.3543748,0.0017706,0.081

 Normal termination of Gaussian 16 at Mon Feb 21 21:04:06 2022.
