 Gaussian 16, Revision B.01,
 Gaussian 16:  ES64L-G16RevB.01 20-Dec-2017

 ---------------------------------------
 #p freq mp2/aug-cc-pvtz density=current
 ---------------------------------------

 -----
 title
 -----
 Symbolic Z-matrix:
 Charge =  0 Multiplicity = 1

                         Standard orientation:
 ---------------------------------------------------------------------
 Center     Atomic      Atomic             Coordinates (Angstroms)
 Number     Number       Type             X           Y           Z
 ---------------------------------------------------------------------
      1          1           0       -0.540517   -1.138409    0.030824
      2          8           0       -1.277106   -0.484466    0.003204
      3          8           0       -0.542854    0.738742   -0.011370
      4          7           0        0.825131    0.550918    0.016870
      5          8           0        1.165534   -0.594027   -0.010448
 ---------------------------------------------------------------------

 SCF Done:  E(RHF) =  -279.506319268     A.U. after   16 cycles
 E2 =    -0.9487617017D+00 EUMP2 =    -0.28045508097015D+03
 E2 =    -0.9487617017D+00 EUMP2 =    -0.28045508097015D+03

 The electronic state is 1-A.
 Alpha  occ. eigenvalues --  -20.71971 -20.68726 -20.66833 -15.82599  -1.64425
 Alpha  occ. eigenvalues --   -1.50517  -1.29375  -0.96036  -0.83457  -0.75894
 Alpha  occ. eigenvalues --   -0.73991  -0.63748  -0.61915  -0.61798  -0.50481
 Alpha  occ. eigenvalues --   -0.49731
 Alpha virt. eigenvalues --    0.03505   0.06015   0.09512   0.10038   0.11919
 Alpha virt. eigenvalues --    0.12300   0.14943   0.15204   0.17737   0.18051
 Alpha virt. eigenvalues --    0.18966   0.21114   0.21678   0.24253   0.24633

 Mulliken charges:
               1
     1  H    0.278119
     2  O   -0.274099
     3  O    0.037549
     4  N    0.154312
     5  O   -0.195881
 Sum of Mulliken charges =  -0.00000

 Dipole moment (field-independent basis, Debye):
    X=              0.6062    Y=             -0.9132    Z=              0.0441  Tot=              1.0970
 Quadrupole moment (field-independent basis, Debye-Ang):
   XX=            -25.1098   YY=            -21.2127   ZZ=            -21.9312
   XY=              0.3834   XZ=             -0.0289   YZ=             -0.1138

  Exact polarizability:  34.496  -0.730  26.272   0.038  -0.008  17.624
 Approx polarizability:  26.139  -1.635  26.070   0.019   0.007  15.521

                      1                      2                      3
                      A                      A                      A
 Frequencies --    351.6674               395.8885               522.1150
 Red. masses --      1.5447                 7.1305                 2.9460
 Frc consts  --      0.1126                 0.6584                 0.4732
 IR Inten    --     63.3669                 7.8006                25.3665

                      4                      5                      6
                      A                      A                      A
 Frequencies --    711.5173               837.1544               970.9942
 Red. masses --     13.3095                12.3623                 9.7844
 Frc consts  --      3.9699                 5.1046                 5.4352
 IR Inten    --    217.2862                30.6244                12.7733

                      7                      8                      9
                      A                      A                      A
 Frequencies --   1434.5372              1570.1952              3487.9816
 Red. masses --      1.3056                 6.3883                 1.0638
 Frc consts  --      1.5830                 9.2800                 7.6251
 IR Inten    --     79.8751               150.0323                42.5241

 - Thermochemistry -
 -------------------
 Temperature   298.150 Kelvin.  Pressure   1.00000 Atm.
 Atom     1 has atomic number  1 and mass   1.00783

 Molecular mass:    62.99564 amu.
 Principal axes and moments of inertia in atomic units:
                           1         2         3
     Eigenvalues --    84.49923 222.73506 307.17109
           X            0.99987   0.01593  -0.00029
           Y           -0.01593   0.99987  -0.00150
           Z            0.00026   0.00151   1.00000
 This molecule is an asymmetric top.
 Rotational symmetry number  1.
 Rotational temperatures (Kelvin)      1.02503     0.38887     0.28197
 Rotational constants (GHZ):          21.35808     8.10264     5.87536
 Zero-point vibrational energy      61500.3 (Joules/Mol)
                                   14.69893 (Kcal/Mol)
 Warning -- explicit consideration of   3 degrees of freedom as
           vibrations may cause significant error
 Vibrational temperatures:    505.97   569.60   751.21  1023.71  1204.48
          (Kelvin)           1397.04  2063.98  2259.16  5018.43

 Zero-point correction=                           0.023424 (Hartree/Particle)
 Thermal correction to Energy=                    0.027366
 Thermal correction to Enthalpy=                  0.028310
 Thermal correction to Gibbs Free Energy=        -0.002553
 Sum of electronic and zero-point Energies=           -280.431657
 Sum of electronic and thermal Energies=              -280.427715
 Sum of electronic and thermal Enthalpies=            -280.426771
 Sum of electronic and thermal Free Energies=         -280.457634

                     E (Thermal)             CV                S
                      KCal/Mol        Cal/Mol-Kelvin    Cal/Mol-Kelvin
 Total                   17.172             12.175             64.957
 Electronic               0.000              0.000              0.000
 Translational            0.889              2.981             38.341
 Rotational               0.889              2.981             23.273
 Vibrational             15.395              6.213              3.343
 Vibration     1          0.728              1.572              1.159
 Vibration     2          0.763              1.479              0.978
 Vibration     3          0.877              1.201              0.605

                       ! Non-Optimized Parameters !

 1\1\GINC-N2108\Freq\RMP2-FC\Aug-CC-pVTZ\H1N1O3\CGAVINH\06-Mar-2022\1\\
 #p freq mp2/aug-cc-pvtz density=current\\title\\0,1\H\O,1,r1\O,2,r2,1,
 a1\N,3,r3,2,a2,1,d1,0\O,4,r4,3,a3,2,d2,0\\r1=0.98537664\r2=1.42673666\
 r3=1.38110764\r4=1.19478846\a1=100.6355057\a2=113.13777052\a3=114.3339
 2022\d1=0.\d2=3.10577919\\Version=ES64L-G16RevB.01\State=1-A\HF=-279.5
 063193\MP2=-280.455081\RMSD=6.274e-09\RMSF=1.625e-03\ZeroPoint=0.02342
 42\Thermal=0.0273656\Dipole=-0.1103607,-0.0050892,-0.4171941\DipoleDer
 iv=0.3166113,0.0023561,0.0381775,0.0029986,0.2981624,-0.0002996,-0.024

 Normal termination of Gaussian 16 at Sun Mar  6 20:02:49 2022.
