 Gaussian 16, Revision B.01,
 Gaussian 16:  ES64L-G16RevB.01 20-Dec-2017

 ---------------------------------------
 #p freq mp2/aug-cc-pvtz density=current
 ---------------------------------------

 -----
 title
 -----
 Symbolic Z-matrix:
 Charge =  0 Multiplicity = 1

                         Standard orientation:
 ---------------------------------------------------------------------
 Center     Atomic      Atomic             Coordinates (Angstroms)
 Number     Number       Type             X           Y           Z
 ---------------------------------------------------------------------
      1          1           0        1.547857    1.675517    0.000000
      2          8           0        1.454060    0.723374    0.000000
      3          8           0        0.000000    0.673389   -0.000000
      4          7           0       -0.261552   -0.761756    0.000000
      5          8           0       -1.418684   -0.939667   -0.000000
 ---------------------------------------------------------------------

 SCF Done:  E(RHF) =  -279.502130192     A.U. after   14 cycles
 E2 =    -0.9444640323D+00 EUMP2 =    -0.28044659422463D+03
 E2 =    -0.9444640323D+00 EUMP2 =    -0.28044659422463D+03

 The electronic state is 1-A'.
 Alpha  occ. eigenvalues --  -20.69121 -20.68453 -20.65901 -15.81309  -1.62432
 Alpha  occ. eigenvalues --   -1.49729  -1.25683  -0.94835  -0.77384  -0.76015
 Alpha  occ. eigenvalues --   -0.71208  -0.68122  -0.62083  -0.59002  -0.48565
 Alpha  occ. eigenvalues --   -0.47284
 Alpha virt. eigenvalues --    0.02986   0.07148   0.08589   0.10168   0.13387
 Alpha virt. eigenvalues --    0.13393   0.14457   0.15500   0.17808   0.19414
 Alpha virt. eigenvalues --    0.19977   0.20637   0.22077   0.23508   0.23726

 Mulliken charges:
               1
     1  H    0.239750
     2  O   -0.191105
     3  O   -0.147946
     4  N    0.292570
     5  O   -0.193268
 Sum of Mulliken charges =  -0.00000

 Dipole moment (field-independent basis, Debye):
    X=              0.5017    Y=              1.3451    Z=              0.0000  Tot=              1.4356
 Quadrupole moment (field-independent basis, Debye-Ang):
   XX=            -22.4636   YY=            -18.6630   ZZ=            -21.9949
   XY=              3.2318   XZ=             -0.0000   YZ=             -0.0000

  Exact polarizability:  33.945   9.415  30.084   0.000   0.000  17.898
 Approx polarizability:  28.974   5.090  23.395   0.000  -0.000  15.502

 ******    1 imaginary frequencies (negative Signs) ******

                      1                      2                      3
                     A"                     A"                     A'
 Frequencies --   -502.9789               228.2429               328.3321
 Red. masses --      1.1208                12.1991                 8.0476
 Frc consts  --      0.1671                 0.3744                 0.5111
 IR Inten    --    126.7422                 0.1108                 5.6155

                      4                      5                      6
                     A'                     A'                     A'
 Frequencies --    451.8600               780.3862               966.3840
 Red. masses --     12.3015                12.2763                15.6345
 Frc consts  --      1.4798                 4.4049                 8.6027
 IR Inten    --    198.9122               161.1384                25.7024

                      7                      8                      9
                     A'                     A'                     A'
 Frequencies --   1329.3112              1677.0817              3939.8391
 Red. masses --      1.1458                13.4685                 1.0675
 Frc consts  --      1.1929                22.3192                 9.7630
 IR Inten    --    155.2514               142.7389                84.0296

 - Thermochemistry -
 -------------------
 Temperature   298.150 Kelvin.  Pressure   1.00000 Atm.
 Atom     1 has atomic number  1 and mass   1.00783

 Molecular mass:    62.99564 amu.
 Principal axes and moments of inertia in atomic units:
                           1         2         3
     Eigenvalues --    32.80990 360.01392 392.82382
           X            0.81028  -0.58604   0.00000
           Y            0.58604   0.81028   0.00000
           Z           -0.00000   0.00000   1.00000
 This molecule is an asymmetric top.
 Rotational symmetry number  1.
 Rotational temperatures (Kelvin)      2.63987     0.24058     0.22049
 Rotational constants (GHZ):          55.00599     5.01298     4.59428
    1 imaginary frequencies ignored.
 Zero-point vibrational energy      58027.5 (Joules/Mol)
                                   13.86890 (Kcal/Mol)
 Warning -- explicit consideration of   3 degrees of freedom as
           vibrations may cause significant error
 Vibrational temperatures:    328.39   472.40   650.13  1122.80  1390.41
          (Kelvin)           1912.58  2412.95  5668.55

 Zero-point correction=                           0.022101 (Hartree/Particle)
 Thermal correction to Energy=                    0.026238
 Thermal correction to Enthalpy=                  0.027183
 Thermal correction to Gibbs Free Energy=        -0.004037
 Sum of electronic and zero-point Energies=           -280.424493
 Sum of electronic and thermal Energies=              -280.420356
 Sum of electronic and thermal Enthalpies=            -280.419412
 Sum of electronic and thermal Free Energies=         -280.450631

                     E (Thermal)             CV                S
                      KCal/Mol        Cal/Mol-Kelvin    Cal/Mol-Kelvin
 Total                   16.465             12.008             65.707
 Electronic               0.000              0.000              0.000
 Translational            0.889              2.981             38.341
 Rotational               0.889              2.981             23.055
 Vibrational             14.687              6.047              4.312
 Vibration     1          0.651              1.798              1.893
 Vibration     2          0.712              1.619              1.268
 Vibration     3          0.811              1.357              0.790

                       ! Non-Optimized Parameters !

 1\1\GINC-N2125\Freq\RMP2-FC\Aug-CC-pVTZ\H1N1O3\CGAVINH\21-Feb-2022\1\\
 #p freq mp2/aug-cc-pvtz density=current\\title\\0,1\H\O,1,r1\O,2,r2,1,
 a1\N,3,r3,2,a2,1,d1,0\O,4,r4,3,a3,2,d2,0\\r1=0.95675204\r2=1.45491931\
 r3=1.45878406\r4=1.17072885\a1=97.59494903\a2=102.29752444\a3=109.0695
 5123\d1=180.\d2=180.\\Version=ES64L-G16RevB.01\State=1-A'\HF=-279.5021
 302\MP2=-280.4465942\RMSD=3.788e-09\RMSF=4.514e-03\ZeroPoint=0.0221015
 \Thermal=0.0262384\Dipole=-0.1445636,0.,-0.5460143\DipoleDeriv=0.26484
 15,0.,0.0486225,0.,0.35727,0.,0.0845451,0.,0.2772336,-0.3280943,0.,-0.

 Normal termination of Gaussian 16 at Mon Feb 21 20:06:49 2022.
