 Gaussian 16, Revision B.01,
 Gaussian 16:  ES64L-G16RevB.01 20-Dec-2017

 ---------------------------------------
 #p freq mp2/aug-cc-pvtz density=current
 ---------------------------------------

 -----
 title
 -----
 Symbolic Z-matrix:
 Charge =  0 Multiplicity = 1

                         Standard orientation:
 ---------------------------------------------------------------------
 Center     Atomic      Atomic             Coordinates (Angstroms)
 Number     Number       Type             X           Y           Z
 ---------------------------------------------------------------------
      1          1           0        1.079094   -0.589703    0.000000
      2          8           0        1.316425    0.366666    0.000000
      3          8           0       -0.000000    0.916759    0.000000
      4          7           0       -0.990405   -0.045819    0.000000
      5          8           0       -0.584708   -1.169621    0.000000
 ---------------------------------------------------------------------

 SCF Done:  E(RHF) =  -279.505875528     A.U. after   14 cycles
 E2 =    -0.9492267614D+00 EUMP2 =    -0.28045510228970D+03
 E2 =    -0.9492267614D+00 EUMP2 =    -0.28045510228970D+03

 The electronic state is 1-A'.
 Alpha  occ. eigenvalues --  -20.71961 -20.68843 -20.66867 -15.82697  -1.64584
 Alpha  occ. eigenvalues --   -1.50625  -1.29390  -0.96033  -0.83638  -0.75968
 Alpha  occ. eigenvalues --   -0.74071  -0.63810  -0.61919  -0.61883  -0.50594
 Alpha  occ. eigenvalues --   -0.49771
 Alpha virt. eigenvalues --    0.03542   0.05944   0.09500   0.10029   0.11935
 Alpha virt. eigenvalues --    0.12261   0.14931   0.15302   0.17736   0.17973
 Alpha virt. eigenvalues --    0.18961   0.21080   0.21698   0.24225   0.24631

 Mulliken charges:
               1
     1  H    0.272432
     2  O   -0.275040
     3  O    0.038686
     4  N    0.156631
     5  O   -0.192710
 Sum of Mulliken charges =  -0.00000

 Dipole moment (field-independent basis, Debye):
    X=              0.0056    Y=             -1.0775    Z=              0.0000  Tot=              1.0775
 Quadrupole moment (field-independent basis, Debye-Ang):
   XX=            -23.4500   YY=            -22.9496   ZZ=            -21.9260
   XY=             -1.8899   XZ=              0.0000   YZ=              0.0000

  Exact polarizability:  30.899   4.221  29.821   0.000   0.000  17.587
 Approx polarizability:  24.617   0.607  27.614  -0.000  -0.000  15.495

                      1                      2                      3
                     A"                     A'                     A"
 Frequencies --    373.0344               398.0735               521.3457
 Red. masses --      1.5502                 7.2287                 2.9131
 Frc consts  --      0.1271                 0.6749                 0.4665
 IR Inten    --     61.0171                 7.9288                24.7253

                      4                      5                      6
                     A'                     A'                     A'
 Frequencies --    713.0694               840.5060               973.9290
 Red. masses --     13.4250                13.1760                 9.8007
 Frc consts  --      4.0219                 5.4842                 5.4772
 IR Inten    --    215.5210                31.7811                12.6812

                      7                      8                      9
                     A'                     A'                     A'
 Frequencies --   1454.4241              1576.8010              3476.0602
 Red. masses --      1.3721                 4.9270                 1.0636
 Frc consts  --      1.7101                 7.2175                 7.5716
 IR Inten    --     82.0329               150.3853                45.6937

 - Thermochemistry -
 -------------------
 Temperature   298.150 Kelvin.  Pressure   1.00000 Atm.
 Atom     1 has atomic number  1 and mass   1.00783

 Molecular mass:    62.99564 amu.
 Principal axes and moments of inertia in atomic units:
                           1         2         3
     Eigenvalues --    84.31993 222.53074 306.85067
           X            0.79508  -0.60651   0.00000
           Y            0.60651   0.79508   0.00000
           Z            0.00000   0.00000   1.00000
 This molecule is an asymmetric top.
 Rotational symmetry number  1.
 Rotational temperatures (Kelvin)      1.02721     0.38922     0.28227
 Rotational constants (GHZ):          21.40350     8.11008     5.88150
 Zero-point vibrational energy      61770.6 (Joules/Mol)
                                   14.76354 (Kcal/Mol)
 Warning -- explicit consideration of   3 degrees of freedom as
           vibrations may cause significant error
 Vibrational temperatures:    536.71   572.74   750.10  1025.95  1209.30
          (Kelvin)           1401.27  2092.59  2268.67  5001.28

 Zero-point correction=                           0.023527 (Hartree/Particle)
 Thermal correction to Energy=                    0.027442
 Thermal correction to Enthalpy=                  0.028386
 Thermal correction to Gibbs Free Energy=        -0.002426
 Sum of electronic and zero-point Energies=           -280.431575
 Sum of electronic and thermal Energies=              -280.427661
 Sum of electronic and thermal Enthalpies=            -280.426717
 Sum of electronic and thermal Free Energies=         -280.457528

                     E (Thermal)             CV                S
                      KCal/Mol        Cal/Mol-Kelvin    Cal/Mol-Kelvin
 Total                   17.220             12.108             64.848
 Electronic               0.000              0.000              0.000
 Translational            0.889              2.981             38.341
 Rotational               0.889              2.981             23.269
 Vibrational             15.442              6.147              3.238
 Vibration     1          0.744              1.527              1.067
 Vibration     2          0.764              1.474              0.970
 Vibration     3          0.876              1.203              0.607

                       ! Non-Optimized Parameters !

 1\1\GINC-N2219\Freq\RMP2-FC\Aug-CC-pVTZ\H1N1O3\CGAVINH\06-Mar-2022\1\\
 #p freq mp2/aug-cc-pvtz density=current\\title\\0,1\H\O,1,r1\O,2,r2,1,
 a1\N,3,r3,2,a2,1,d1,0\O,4,r4,3,a3,2,d2,0\\r1=0.98537664\r2=1.42673666\
 r3=1.38110764\r4=1.19478846\a1=98.74165407\a2=113.13777052\a3=114.3339
 2022\d1=0.\d2=0.\\Version=ES64L-G16RevB.01\State=1-A'\HF=-279.5058755\
 MP2=-280.4551023\RMSD=4.494e-09\RMSF=1.795e-03\ZeroPoint=0.0235272\The
 rmal=0.0274415\Dipole=-0.1042263,0.,-0.4109226\DipoleDeriv=0.3206128,0
 .,0.0303344,0.,0.2936324,0.,-0.0406254,0.,0.2048415,-0.5253645,0.,0.29

 Normal termination of Gaussian 16 at Sun Mar  6 19:30:06 2022.
