 Gaussian 16, Revision B.01,
 Gaussian 16:  ES64L-G16RevB.01 20-Dec-2017

 ---------------------------------------
 #p freq mp2/aug-cc-pvtz density=current
 ---------------------------------------

 -----
 title
 -----
 Symbolic Z-matrix:
 Charge =  0 Multiplicity = 1

                         Standard orientation:
 ---------------------------------------------------------------------
 Center     Atomic      Atomic             Coordinates (Angstroms)
 Number     Number       Type             X           Y           Z
 ---------------------------------------------------------------------
      1          1           0        1.122115   -0.580740    0.000000
      2          8           0        1.320501    0.384459    0.000000
      3          8           0        0.000000    0.924696    0.000000
      4          7           0       -0.999921   -0.061774    0.000000
      5          8           0       -0.585834   -1.182511    0.000000
 ---------------------------------------------------------------------

 SCF Done:  E(RHF) =  -279.504210482     A.U. after   14 cycles
 E2 =    -0.9508277380D+00 EUMP2 =    -0.28045503822045D+03
 E2 =    -0.9508277380D+00 EUMP2 =    -0.28045503822045D+03

 The electronic state is 1-A'.
 Alpha  occ. eigenvalues --  -20.71592 -20.69266 -20.66690 -15.82890  -1.63906
 Alpha  occ. eigenvalues --   -1.50481  -1.28542  -0.96174  -0.83209  -0.75626
 Alpha  occ. eigenvalues --   -0.73483  -0.63685  -0.62052  -0.61919  -0.50410
 Alpha  occ. eigenvalues --   -0.49517
 Alpha virt. eigenvalues --    0.03518   0.05685   0.09499   0.10033   0.11972
 Alpha virt. eigenvalues --    0.12207   0.14984   0.15265   0.17767   0.17994
 Alpha virt. eigenvalues --    0.18993   0.21079   0.21678   0.24173   0.24626

 Mulliken charges:
               1
     1  H    0.277559
     2  O   -0.271129
     3  O    0.019460
     4  N    0.162337
     5  O   -0.188228
 Sum of Mulliken charges =  -0.00000

 Dipole moment (field-independent basis, Debye):
    X=             -0.0076    Y=             -1.2043    Z=              0.0000  Tot=              1.2044
 Quadrupole moment (field-independent basis, Debye-Ang):
   XX=            -23.2973   YY=            -22.9910   ZZ=            -21.9713
   XY=             -1.9244   XZ=              0.0000   YZ=              0.0000

  Exact polarizability:  31.039   4.305  30.199   0.000   0.000  17.699
 Approx polarizability:  24.761   0.637  28.035  -0.000  -0.000  15.554

                      1                      2                      3
                     A"                     A'                     A"
 Frequencies --    342.2389               377.5229               518.1107
 Red. masses --      1.5001                 7.2680                 3.1321
 Frc consts  --      0.1035                 0.6103                 0.4954
 IR Inten    --     64.3026                10.1218                23.6202

                      4                      5                      6
                     A'                     A'                     A'
 Frequencies --    630.3699               834.4438               965.2506
 Red. masses --     13.0794                12.0847                10.1360
 Frc consts  --      3.0622                 4.9577                 5.5642
 IR Inten    --    236.3983                28.1947                11.1355

                      7                      8                      9
                     A'                     A'                     A'
 Frequencies --   1435.1282              1558.5786              3490.1219
 Red. masses --      1.3222                 5.8629                 1.0641
 Frc consts  --      1.6045                 8.3911                 7.6366
 IR Inten    --     78.6767               149.9526                38.7680

 - Thermochemistry -
 -------------------
 Temperature   298.150 Kelvin.  Pressure   1.00000 Atm.
 Atom     1 has atomic number  1 and mass   1.00783

 Molecular mass:    62.99564 amu.
 Principal axes and moments of inertia in atomic units:
                           1         2         3
     Eigenvalues --    84.56423 227.63692 312.20115
           X            0.78914  -0.61422   0.00000
           Y            0.61422   0.78914   0.00000
           Z            0.00000   0.00000   1.00000
 This molecule is an asymmetric top.
 Rotational symmetry number  1.
 Rotational temperatures (Kelvin)      1.02424     0.38049     0.27743
 Rotational constants (GHZ):          21.34166     7.92816     5.78070
 Zero-point vibrational energy      60721.0 (Joules/Mol)
                                   14.51268 (Kcal/Mol)
 Warning -- explicit consideration of   3 degrees of freedom as
           vibrations may cause significant error
 Vibrational temperatures:    492.41   543.17   745.45   906.96  1200.58
          (Kelvin)           1388.78  2064.83  2242.45  5021.51

 Zero-point correction=                           0.023127 (Hartree/Particle)
 Thermal correction to Energy=                    0.027138
 Thermal correction to Enthalpy=                  0.028082
 Thermal correction to Gibbs Free Energy=        -0.002911
 Sum of electronic and zero-point Energies=           -280.431911
 Sum of electronic and thermal Energies=              -280.427900
 Sum of electronic and thermal Enthalpies=            -280.426956
 Sum of electronic and thermal Free Energies=         -280.457949

                     E (Thermal)             CV                S
                      KCal/Mol        Cal/Mol-Kelvin    Cal/Mol-Kelvin
 Total                   17.030             12.416             65.231
 Electronic               0.000              0.000              0.000
 Translational            0.889              2.981             38.341
 Rotational               0.889              2.981             23.312
 Vibrational             15.252              6.454              3.579
 Vibration     1          0.721              1.591              1.202
 Vibration     2          0.748              1.518              1.049
 Vibration     3          0.873              1.210              0.614

                       ! Non-Optimized Parameters !

 1\1\GINC-N2110\Freq\RMP2-FC\Aug-CC-pVTZ\H1N1O3\CGAVINH\06-Mar-2022\1\\
 #p freq mp2/aug-cc-pvtz density=current\\title\\0,1\H\O,1,r1\O,2,r2,1,
 a1\N,3,r3,2,a2,1,d1,0\O,4,r4,3,a3,2,d2,0\\r1=0.98537664\r2=1.42673666\
 r3=1.40462232\r4=1.19478846\a1=100.6355057\a2=113.13777052\a3=114.3339
 2022\d1=0.\d2=0.\\Version=ES64L-G16RevB.01\State=1-A'\HF=-279.5042105\
 MP2=-280.4550382\RMSD=4.966e-09\RMSF=2.937e-03\ZeroPoint=0.0231274\The
 rmal=0.0271383\Dipole=-0.0924618,0.,-0.4647273\DipoleDeriv=0.3113781,0
 .,0.0395292,0.,0.2977451,0.,-0.0216726,0.,0.1902582,-0.522032,0.,0.278

 Normal termination of Gaussian 16 at Sun Mar  6 19:08:56 2022.
