 Gaussian 16, Revision B.01,
 Gaussian 16:  ES64L-G16RevB.01 20-Dec-2017

 ---------------------------------------
 #p freq mp2/aug-cc-pvtz density=current
 ---------------------------------------

 -----
 title
 -----
 Symbolic Z-matrix:
 Charge =  0 Multiplicity = 1

                         Standard orientation:
 ---------------------------------------------------------------------
 Center     Atomic      Atomic             Coordinates (Angstroms)
 Number     Number       Type             X           Y           Z
 ---------------------------------------------------------------------
      1          1           0        1.141924   -0.605889   -0.000000
      2          8           0        1.315180    0.364137   -0.000000
      3          8           0       -0.000000    0.917200    0.000000
      4          7           0       -0.992575   -0.043139    0.000000
      5          8           0       -0.589417   -1.167854    0.000000
 ---------------------------------------------------------------------

 SCF Done:  E(RHF) =  -279.506678267     A.U. after   14 cycles
 E2 =    -0.9484041730D+00 EUMP2 =    -0.28045508244051D+03
 E2 =    -0.9484041730D+00 EUMP2 =    -0.28045508244051D+03

 The electronic state is 1-A'.
 Alpha  occ. eigenvalues --  -20.72008 -20.68606 -20.66774 -15.82504  -1.64273
 Alpha  occ. eigenvalues --   -1.50401  -1.29361  -0.96042  -0.83295  -0.75819
 Alpha  occ. eigenvalues --   -0.73923  -0.63680  -0.61826  -0.61751  -0.50340
 Alpha  occ. eigenvalues --   -0.49729
 Alpha virt. eigenvalues --    0.03468   0.06110   0.09523   0.10044   0.12010
 Alpha virt. eigenvalues --    0.12259   0.14920   0.15108   0.17772   0.18098
 Alpha virt. eigenvalues --    0.18996   0.21128   0.21641   0.24275   0.24640

 Mulliken charges:
               1
     1  H    0.283024
     2  O   -0.273612
     3  O    0.037109
     4  N    0.151662
     5  O   -0.198183
 Sum of Mulliken charges =  -0.00000

 Dipole moment (field-independent basis, Debye):
    X=              0.1013    Y=             -1.1112    Z=             -0.0000  Tot=              1.1158
 Quadrupole moment (field-independent basis, Debye-Ang):
   XX=            -23.2966   YY=            -22.9346   ZZ=            -21.9412
   XY=             -2.0654   XZ=              0.0000   YZ=             -0.0000

  Exact polarizability:  30.951   4.058  29.892  -0.000   0.000  17.653
 Approx polarizability:  24.506   0.423  27.708  -0.000   0.000  15.536

                      1                      2                      3
                     A"                     A'                     A"
 Frequencies --    324.9948               396.3284               524.4847
 Red. masses --      1.5382                 6.9017                 3.0008
 Frc consts  --      0.0957                 0.6387                 0.4863
 IR Inten    --     65.9023                 7.5592                25.2339

                      4                      5                      6
                     A'                     A'                     A'
 Frequencies --    709.3038               832.3234               968.0579
 Red. masses --     13.2205                11.5048                 9.7540
 Frc consts  --      3.9189                 4.6958                 5.3856
 IR Inten    --    218.5492                30.1018                12.7423

                      7                      8                      9
                     A'                     A'                     A'
 Frequencies --   1411.8848              1565.3670              3498.7973
 Red. masses --      1.2717                 8.0062                 1.0641
 Frc consts  --      1.4936                11.5587                 7.6745
 IR Inten    --     78.1703               149.4223                40.7206

 - Thermochemistry -
 -------------------
 Temperature   298.150 Kelvin.  Pressure   1.00000 Atm.
 Atom     1 has atomic number  1 and mass   1.00783

 Molecular mass:    62.99564 amu.
 Principal axes and moments of inertia in atomic units:
                           1         2         3
     Eigenvalues --    84.75052 222.69982 307.45034
           X            0.79768  -0.60308   0.00000
           Y            0.60308   0.79768   0.00000
           Z           -0.00000   0.00000   1.00000
 This molecule is an asymmetric top.
 Rotational symmetry number  1.
 Rotational temperatures (Kelvin)      1.02199     0.38893     0.28172
 Rotational constants (GHZ):          21.29475     8.10392     5.87003
 Zero-point vibrational energy      61198.2 (Joules/Mol)
                                   14.62672 (Kcal/Mol)
 Warning -- explicit consideration of   3 degrees of freedom as
           vibrations may cause significant error
 Vibrational temperatures:    467.60   570.23   754.62  1020.53  1197.53
          (Kelvin)           1392.82  2031.39  2252.21  5033.99

 Zero-point correction=                           0.023309 (Hartree/Particle)
 Thermal correction to Energy=                    0.027282
 Thermal correction to Enthalpy=                  0.028226
 Thermal correction to Gibbs Free Energy=        -0.002699
 Sum of electronic and zero-point Energies=           -280.431773
 Sum of electronic and thermal Energies=              -280.427800
 Sum of electronic and thermal Enthalpies=            -280.426856
 Sum of electronic and thermal Free Energies=         -280.457782

                     E (Thermal)             CV                S
                      KCal/Mol        Cal/Mol-Kelvin    Cal/Mol-Kelvin
 Total                   17.120             12.246             65.089
 Electronic               0.000              0.000              0.000
 Translational            0.889              2.981             38.341
 Rotational               0.889              2.981             23.277
 Vibrational             15.342              6.284              3.471
 Vibration     1          0.709              1.625              1.285
 Vibration     2          0.763              1.478              0.976
 Vibration     3          0.879              1.196              0.600

                       ! Non-Optimized Parameters !

 1\1\GINC-N2108\Freq\RMP2-FC\Aug-CC-pVTZ\H1N1O3\CGAVINH\06-Mar-2022\1\\
 #p freq mp2/aug-cc-pvtz density=current\\title\\0,1\H\O,1,r1\O,2,r2,1,
 a1\N,3,r3,2,a2,1,d1,0\O,4,r4,3,a3,2,d2,0\\r1=0.98537664\r2=1.42673666\
 r3=1.38110764\r4=1.19478846\a1=102.68109925\a2=113.13777052\a3=114.333
 92022\d1=0.\d2=0.\\Version=ES64L-G16RevB.01\State=1-A'\HF=-279.5066783
 \MP2=-280.4550824\RMSD=4.347e-09\RMSF=1.945e-03\ZeroPoint=0.0233092\Th
 ermal=0.0272821\Dipole=-0.116091,0.,-0.4233809\DipoleDeriv=0.3118458,0
 .,0.0453564,0.,0.3028693,0.,-0.0065591,0.,0.1961724,-0.5306638,0.,0.26

 Normal termination of Gaussian 16 at Sun Mar  6 19:26:14 2022.
