 Gaussian 16, Revision B.01,
 Gaussian 16:  ES64L-G16RevB.01 20-Dec-2017

 ---------------------------------------
 #p freq mp2/aug-cc-pvtz density=current
 ---------------------------------------

 -----
 title
 -----
 Symbolic Z-matrix:
 Charge =  0 Multiplicity = 1

                         Standard orientation:
 ---------------------------------------------------------------------
 Center     Atomic      Atomic             Coordinates (Angstroms)
 Number     Number       Type             X           Y           Z
 ---------------------------------------------------------------------
      1          1           0        1.110636   -0.599359   -0.000000
      2          8           0        1.316355    0.364304   -0.000000
      3          8           0       -0.000000    0.914566    0.000000
      4          7           0       -0.990528   -0.047885    0.000000
      5          8           0       -0.588472   -1.162050   -0.000000
 ---------------------------------------------------------------------

 SCF Done:  E(RHF) =  -279.508044212     A.U. after   14 cycles
 E2 =    -0.9470499939D+00 EUMP2 =    -0.28045509420565D+03
 E2 =    -0.9470499939D+00 EUMP2 =    -0.28045509420565D+03

 The electronic state is 1-A'.
 Alpha  occ. eigenvalues --  -20.71743 -20.68777 -20.66737 -15.82434  -1.65027
 Alpha  occ. eigenvalues --   -1.50745  -1.29275  -0.95881  -0.83692  -0.76118
 Alpha  occ. eigenvalues --   -0.74165  -0.63746  -0.62071  -0.61886  -0.50280
 Alpha  occ. eigenvalues --   -0.49683
 Alpha virt. eigenvalues --    0.03500   0.06346   0.09515   0.10047   0.11948
 Alpha virt. eigenvalues --    0.12270   0.14932   0.15207   0.17785   0.18026
 Alpha virt. eigenvalues --    0.18981   0.21101   0.21676   0.24353   0.24654

 Mulliken charges:
               1
     1  H    0.277042
     2  O   -0.274923
     3  O    0.035566
     4  N    0.153633
     5  O   -0.191319
 Sum of Mulliken charges =  -0.00000

 Dipole moment (field-independent basis, Debye):
    X=              0.0274    Y=             -1.1404    Z=             -0.0000  Tot=              1.1408
 Quadrupole moment (field-independent basis, Debye-Ang):
   XX=            -23.3599   YY=            -22.9278   ZZ=            -21.9129
   XY=             -1.9505   XZ=              0.0000   YZ=             -0.0000

  Exact polarizability:  30.843   4.075  29.638  -0.000   0.000  17.591
 Approx polarizability:  24.498   0.539  27.394  -0.000   0.000  15.468

                      1                      2                      3
                     A"                     A'                     A"
 Frequencies --    347.6096               395.7927               513.0692
 Red. masses --      1.6111                 7.1025                 2.7413
 Frc consts  --      0.1147                 0.6555                 0.4252
 IR Inten    --     60.4480                 7.3468                27.7722

                      4                      5                      6
                     A'                     A'                     A'
 Frequencies --    707.2847               836.6311               973.2298
 Red. masses --     13.5620                12.2772                 9.6657
 Frc consts  --      3.9973                 5.0631                 5.3941
 IR Inten    --    221.8226                26.6321                12.0105

                      7                      8                      9
                     A'                     A'                     A'
 Frequencies --   1438.7233              1626.6760              3488.8161
 Red. masses --      1.2382                 8.7220                 1.0637
 Frc consts  --      1.5101                13.5977                 7.6285
 IR Inten    --     81.6877               159.7626                42.4312

 - Thermochemistry -
 -------------------
 Temperature   298.150 Kelvin.  Pressure   1.00000 Atm.
 Atom     1 has atomic number  1 and mass   1.00783

 Molecular mass:    62.99564 amu.
 Principal axes and moments of inertia in atomic units:
                           1         2         3
     Eigenvalues --    83.86129 222.20198 306.06327
           X            0.79904  -0.60127   0.00000
           Y            0.60127   0.79904   0.00000
           Z           -0.00000  -0.00000   1.00000
 This molecule is an asymmetric top.
 Rotational symmetry number  1.
 Rotational temperatures (Kelvin)      1.03282     0.38980     0.28299
 Rotational constants (GHZ):          21.52055     8.12208     5.89663
 Zero-point vibrational energy      61774.2 (Joules/Mol)
                                   14.76438 (Kcal/Mol)
 Warning -- explicit consideration of   3 degrees of freedom as
           vibrations may cause significant error
 Vibrational temperatures:    500.13   569.46   738.19  1017.62  1203.73
          (Kelvin)           1400.26  2070.00  2340.42  5019.63

 Zero-point correction=                           0.023529 (Hartree/Particle)
 Thermal correction to Energy=                    0.027481
 Thermal correction to Enthalpy=                  0.028426
 Thermal correction to Gibbs Free Energy=        -0.002451
 Sum of electronic and zero-point Energies=           -280.431566
 Sum of electronic and thermal Energies=              -280.427613
 Sum of electronic and thermal Enthalpies=            -280.426669
 Sum of electronic and thermal Free Energies=         -280.457545

                     E (Thermal)             CV                S
                      KCal/Mol        Cal/Mol-Kelvin    Cal/Mol-Kelvin
 Total                   17.245             12.197             64.985
 Electronic               0.000              0.000              0.000
 Translational            0.889              2.981             38.341
 Rotational               0.889              2.981             23.260
 Vibrational             15.467              6.236              3.385
 Vibration     1          0.725              1.580              1.177
 Vibration     2          0.763              1.479              0.978
 Vibration     3          0.868              1.221              0.626

                       ! Non-Optimized Parameters !

 1\1\GINC-N2219\Freq\RMP2-FC\Aug-CC-pVTZ\H1N1O3\CGAVINH\06-Mar-2022\1\\
 #p freq mp2/aug-cc-pvtz density=current\\title\\0,1\H\O,1,r1\O,2,r2,1,
 a1\N,3,r3,2,a2,1,d1,0\O,4,r4,3,a3,2,d2,0\\r1=0.98537664\r2=1.42673666\
 r3=1.38110764\r4=1.18448812\a1=100.6355057\a2=113.13777052\a3=114.3339
 2022\d1=0.\d2=0.\\Version=ES64L-G16RevB.01\State=1-A'\HF=-279.5080442\
 MP2=-280.4550942\RMSD=3.428e-09\RMSF=5.200e-03\ZeroPoint=0.0235285\The
 rmal=0.0274814\Dipole=-0.1042332,0.,-0.4365433\DipoleDeriv=0.3166218,0
 .,0.0376202,0.,0.2981033,0.,-0.0249611,0.,0.1988585,-0.527546,0.,0.278

 Normal termination of Gaussian 16 at Sun Mar  6 19:21:18 2022.
