 Gaussian 16, Revision B.01,
 Gaussian 16:  ES64L-G16RevB.01 20-Dec-2017

 ---------------------------------------
 #p freq mp2/aug-cc-pvtz density=current
 ---------------------------------------

 -----
 title
 -----
 Symbolic Z-matrix:
 Charge =  0 Multiplicity = 1

                         Standard orientation:
 ---------------------------------------------------------------------
 Center     Atomic      Atomic             Coordinates (Angstroms)
 Number     Number       Type             X           Y           Z
 ---------------------------------------------------------------------
      1          1           0        1.552406    1.681834    0.000000
      2          8           0        1.454218    0.717846    0.000000
      3          8           0        0.000000    0.672676   -0.000000
      4          7           0       -0.266303   -0.761595    0.000000
      5          8           0       -1.415253   -0.934355   -0.000000
 ---------------------------------------------------------------------

 SCF Done:  E(RHF) =  -279.503072193     A.U. after   14 cycles
 E2 =    -0.9435395317D+00 EUMP2 =    -0.28044661172468D+03
 E2 =    -0.9435395317D+00 EUMP2 =    -0.28044661172468D+03

 The electronic state is 1-A'.
 Alpha  occ. eigenvalues --  -20.68879 -20.68467 -20.65884 -15.81154  -1.63135
 Alpha  occ. eigenvalues --   -1.49580  -1.25351  -0.94687  -0.77388  -0.76154
 Alpha  occ. eigenvalues --   -0.71371  -0.68040  -0.62218  -0.58883  -0.48446
 Alpha  occ. eigenvalues --   -0.47076
 Alpha virt. eigenvalues --    0.02987   0.07441   0.08579   0.10172   0.13379
 Alpha virt. eigenvalues --    0.13407   0.14427   0.15475   0.17842   0.19407
 Alpha virt. eigenvalues --    0.20014   0.20637   0.22110   0.23619   0.23744

 Mulliken charges:
               1
     1  H    0.249957
     2  O   -0.202311
     3  O   -0.149137
     4  N    0.292636
     5  O   -0.191146
 Sum of Mulliken charges =  -0.00000

 Dipole moment (field-independent basis, Debye):
    X=              0.4743    Y=              1.3214    Z=             -0.0000  Tot=              1.4039
 Quadrupole moment (field-independent basis, Debye-Ang):
   XX=            -22.4217   YY=            -18.6158   ZZ=            -21.9956
   XY=              3.2863   XZ=             -0.0000   YZ=              0.0000

  Exact polarizability:  33.909   9.376  30.135   0.000  -0.000  17.911
 Approx polarizability:  28.815   5.036  23.446   0.000  -0.000  15.484

 ******    1 imaginary frequencies (negative Signs) ******

                      1                      2                      3
                     A"                     A"                     A'
 Frequencies --   -268.0426               195.4801               333.7333
 Red. masses --      1.1503                 9.6347                 8.7218
 Frc consts  --      0.0487                 0.2169                 0.5723
 IR Inten    --    124.0386                 1.4471                 2.8708

                      4                      5                      6
                     A'                     A'                     A'
 Frequencies --    456.7453               784.7438               968.2119
 Red. masses --     12.1967                12.7181                15.4019
 Frc consts  --      1.4991                 4.6146                 8.5068
 IR Inten    --    200.6365               171.1965                21.4426

                      7                      8                      9
                     A'                     A'                     A'
 Frequencies --   1371.8763              1735.1147              3778.6186
 Red. masses --      1.1302                13.7884                 1.0675
 Frc consts  --      1.2532                24.4579                 8.9805
 IR Inten    --    148.8424               161.6393                81.8644

 - Thermochemistry -
 -------------------
 Temperature   298.150 Kelvin.  Pressure   1.00000 Atm.
 Atom     1 has atomic number  1 and mass   1.00783

 Molecular mass:    62.99564 amu.
 Principal axes and moments of inertia in atomic units:
                           1         2         3
     Eigenvalues --    32.80470 358.64967 391.45437
           X            0.81131  -0.58462   0.00000
           Y            0.58462   0.81131   0.00000
           Z           -0.00000   0.00000   1.00000
 This molecule is an asymmetric top.
 Rotational symmetry number  1.
 Rotational temperatures (Kelvin)      2.64029     0.24150     0.22126
 Rotational constants (GHZ):          55.01472     5.03204     4.61035
    1 imaginary frequencies ignored.
 Zero-point vibrational energy      57567.4 (Joules/Mol)
                                   13.75895 (Kcal/Mol)
 Warning -- explicit consideration of   3 degrees of freedom as
           vibrations may cause significant error
 Vibrational temperatures:    281.25   480.17   657.15  1129.07  1393.04
          (Kelvin)           1973.82  2496.44  5436.59

 Zero-point correction=                           0.021926 (Hartree/Particle)
 Thermal correction to Energy=                    0.026099
 Thermal correction to Enthalpy=                  0.027043
 Thermal correction to Gibbs Free Energy=        -0.004283
 Sum of electronic and zero-point Energies=           -280.424685
 Sum of electronic and thermal Energies=              -280.420513
 Sum of electronic and thermal Enthalpies=            -280.419568
 Sum of electronic and thermal Free Energies=         -280.450895

                     E (Thermal)             CV                S
                      KCal/Mol        Cal/Mol-Kelvin    Cal/Mol-Kelvin
 Total                   16.377             12.000             65.932
 Electronic               0.000              0.000              0.000
 Translational            0.889              2.981             38.341
 Rotational               0.889              2.981             23.048
 Vibrational             14.600              6.038              4.544
 Vibration     1          0.636              1.846              2.175
 Vibration     2          0.715              1.608              1.242
 Vibration     3          0.815              1.346              0.776

                       ! Non-Optimized Parameters !

 1\1\GINC-N2124\Freq\RMP2-FC\Aug-CC-pVTZ\H1N1O3\CGAVINH\21-Feb-2022\1\\
 #p freq mp2/aug-cc-pvtz density=current\\title\\0,1\H\O,1,r1\O,2,r2,1,
 a1\N,3,r3,2,a2,1,d1,0\O,4,r4,3,a3,2,d2,0\\r1=0.96897556\r2=1.45491931\
 r3=1.45878406\r4=1.16186556\a1=97.59494903\a2=102.29752444\a3=109.0695
 5123\d1=180.\d2=180.\\Version=ES64L-G16RevB.01\State=1-A'\HF=-279.5030
 722\MP2=-280.4466117\RMSD=3.557e-09\RMSF=5.099e-03\ZeroPoint=0.0219263
 \Thermal=0.0260992\Dipole=-0.1329589,0.,-0.5361001\DipoleDeriv=0.26633
 95,0.,0.0481494,0.,0.3552568,0.,0.0815556,0.,0.2745388,-0.326423,0.,-0

 Normal termination of Gaussian 16 at Mon Feb 21 20:33:17 2022.
