 Gaussian 16, Revision B.01,
 Gaussian 16:  ES64L-G16RevB.01 20-Dec-2017

 ---------------------------------------
 #p freq mp2/aug-cc-pvtz density=current
 ---------------------------------------

 -----
 title
 -----
 Symbolic Z-matrix:
 Charge =  0 Multiplicity = 1

                         Standard orientation:
 ---------------------------------------------------------------------
 Center     Atomic      Atomic             Coordinates (Angstroms)
 Number     Number       Type             X           Y           Z
 ---------------------------------------------------------------------
      1          1           0        1.110025   -0.598784    0.000000
      2          8           0        1.316132    0.364797   -0.000000
      3          8           0       -0.000000    0.915590   -0.000000
      4          7           0       -0.990916   -0.046462    0.000000
      5          8           0       -0.587834   -1.164884    0.000000
 ---------------------------------------------------------------------

 SCF Done:  E(RHF) =  -279.507397919     A.U. after   14 cycles
 E2 =    -0.9477927273D+00 EUMP2 =    -0.28045519064660D+03
 E2 =    -0.9477927273D+00 EUMP2 =    -0.28045519064660D+03

 The electronic state is 1-A'.
 Alpha  occ. eigenvalues --  -20.71844 -20.68756 -20.66776 -15.82506  -1.64768
 Alpha  occ. eigenvalues --   -1.50651  -1.29318  -0.95946  -0.83598  -0.76021
 Alpha  occ. eigenvalues --   -0.74092  -0.63742  -0.61974  -0.61882  -0.50362
 Alpha  occ. eigenvalues --   -0.49712
 Alpha virt. eigenvalues --    0.03503   0.06210   0.09514   0.10043   0.11958
 Alpha virt. eigenvalues --    0.12266   0.14932   0.15206   0.17771   0.18029
 Alpha virt. eigenvalues --    0.18979   0.21101   0.21674   0.24311   0.24646

 Mulliken charges:
               1
     1  H    0.277418
     2  O   -0.274615
     3  O    0.036561
     4  N    0.153834
     5  O   -0.193198
 Sum of Mulliken charges =  -0.00000

 Dipole moment (field-independent basis, Debye):
    X=              0.0378    Y=             -1.1206    Z=              0.0000  Tot=              1.1213
 Quadrupole moment (field-independent basis, Debye-Ang):
   XX=            -23.3678   YY=            -22.9340   ZZ=            -21.9216
   XY=             -1.9606   XZ=              0.0000   YZ=              0.0000

  Exact polarizability:  30.876   4.103  29.729   0.000  -0.000  17.603
 Approx polarizability:  24.524   0.531  27.506  -0.000  -0.000  15.488

                      1                      2                      3
                     A"                     A'                     A"
 Frequencies --    350.2923               396.4481               517.6192
 Red. masses --      1.5860                 7.0845                 2.8155
 Frc consts  --      0.1147                 0.6560                 0.4445
 IR Inten    --     61.5146                 7.5267                26.7449

                      4                      5                      6
                     A'                     A'                     A'
 Frequencies --    709.0302               836.7723               972.3176
 Red. masses --     13.4664                12.3218                 9.7054
 Frc consts  --      3.9887                 5.0832                 5.4060
 IR Inten    --    219.9041                28.3631                12.3120

                      7                      8                      9
                     A'                     A'                     A'
 Frequencies --   1436.9767              1602.2786              3488.2817
 Red. masses --      1.2592                 7.8122                 1.0637
 Frc consts  --      1.5319                11.8168                 7.6262
 IR Inten    --     81.0050               155.6984                42.5707

 - Thermochemistry -
 -------------------
 Temperature   298.150 Kelvin.  Pressure   1.00000 Atm.
 Atom     1 has atomic number  1 and mass   1.00783

 Molecular mass:    62.99564 amu.
 Principal axes and moments of inertia in atomic units:
                           1         2         3
     Eigenvalues --    84.14305 222.37267 306.51573
           X            0.79790  -0.60279   0.00000
           Y            0.60279   0.79790   0.00000
           Z            0.00000  -0.00000   1.00000
 This molecule is an asymmetric top.
 Rotational symmetry number  1.
 Rotational temperatures (Kelvin)      1.02937     0.38950     0.28258
 Rotational constants (GHZ):          21.44849     8.11584     5.88792
 Zero-point vibrational energy      61667.6 (Joules/Mol)
                                   14.73891 (Kcal/Mol)
 Warning -- explicit consideration of   3 degrees of freedom as
           vibrations may cause significant error
 Vibrational temperatures:    503.99   570.40   744.74  1020.14  1203.93
          (Kelvin)           1398.95  2067.49  2305.32  5018.86

 Zero-point correction=                           0.023488 (Hartree/Particle)
 Thermal correction to Energy=                    0.027434
 Thermal correction to Enthalpy=                  0.028378
 Thermal correction to Gibbs Free Energy=        -0.002489
 Sum of electronic and zero-point Energies=           -280.431703
 Sum of electronic and thermal Energies=              -280.427757
 Sum of electronic and thermal Enthalpies=            -280.426813
 Sum of electronic and thermal Free Energies=         -280.457680

                     E (Thermal)             CV                S
                      KCal/Mol        Cal/Mol-Kelvin    Cal/Mol-Kelvin
 Total                   17.215             12.183             64.965
 Electronic               0.000              0.000              0.000
 Translational            0.889              2.981             38.341
 Rotational               0.889              2.981             23.265
 Vibrational             15.437              6.221              3.359
 Vibration     1          0.727              1.575              1.165
 Vibration     2          0.763              1.478              0.976
 Vibration     3          0.873              1.211              0.616

                       ! Non-Optimized Parameters !

 1\1\GINC-N2174\Freq\RMP2-FC\Aug-CC-pVTZ\H1N1O3\CGAVINH\06-Mar-2022\1\\
 #p freq mp2/aug-cc-pvtz density=current\\title\\0,1\H\O,1,r1\O,2,r2,1,
 a1\N,3,r3,2,a2,1,d1,0\O,4,r4,3,a3,2,d2,0\\r1=0.98537664\r2=1.42673666\
 r3=1.38110764\r4=1.18884155\a1=100.6355057\a2=113.13777052\a3=114.3339
 2022\d1=0.\d2=0.\\Version=ES64L-G16RevB.01\State=1-A'\HF=-279.5073979\
 MP2=-280.4551906\RMSD=3.870e-09\RMSF=3.010e-03\ZeroPoint=0.0234879\The
 rmal=0.0274338\Dipole=-0.106751,0.,-0.4280334\DipoleDeriv=0.3167493,0.
 ,0.0377192,0.,0.2980899,0.,-0.0247444,0.,0.1993224,-0.5278331,0.,0.279

 Normal termination of Gaussian 16 at Sun Mar  6 19:20:53 2022.
