 Gaussian 16, Revision B.01,
 Gaussian 16:  ES64L-G16RevB.01 20-Dec-2017

 ---------------------------------------
 #p freq mp2/aug-cc-pvtz density=current
 ---------------------------------------

 -----
 title
 -----
 Symbolic Z-matrix:
 Charge =  0 Multiplicity = 1

                         Standard orientation:
 ---------------------------------------------------------------------
 Center     Atomic      Atomic             Coordinates (Angstroms)
 Number     Number       Type             X           Y           Z
 ---------------------------------------------------------------------
      1          1           0        2.246110    0.431601    0.086574
      2          8           0        1.598986   -0.283437   -0.007579
      3          8           0        0.400303    0.541149   -0.010171
      4          7           0       -0.663466   -0.456971    0.004037
      5          8           0       -1.699520    0.088188    0.003396
 ---------------------------------------------------------------------

 SCF Done:  E(RHF) =  -279.501721296     A.U. after   14 cycles
 E2 =    -0.9450588017D+00 EUMP2 =    -0.28044678009776D+03
 E2 =    -0.9450588017D+00 EUMP2 =    -0.28044678009776D+03

 The electronic state is 1-A.
 Alpha  occ. eigenvalues --  -20.69093 -20.68429 -20.66002 -15.81280  -1.62403
 Alpha  occ. eigenvalues --   -1.49577  -1.25442  -0.94807  -0.77271  -0.75926
 Alpha  occ. eigenvalues --   -0.71210  -0.67921  -0.62029  -0.58926  -0.48573
 Alpha  occ. eigenvalues --   -0.47226
 Alpha virt. eigenvalues --    0.02961   0.07167   0.08594   0.10173   0.13321
 Alpha virt. eigenvalues --    0.13456   0.14403   0.15450   0.17822   0.19416
 Alpha virt. eigenvalues --    0.19964   0.20644   0.22081   0.23541   0.23734

 Mulliken charges:
               1
     1  H    0.250189
     2  O   -0.201599
     3  O   -0.147123
     4  N    0.291818
     5  O   -0.193285
 Sum of Mulliken charges =  -0.00000

 Dipole moment (field-independent basis, Debye):
    X=              1.2136    Y=              0.7855    Z=              0.1644  Tot=              1.4549
 Quadrupole moment (field-independent basis, Debye-Ang):
   XX=            -18.0193   YY=            -23.1014   ZZ=            -21.9889
   XY=              2.7739   XZ=              0.4341   YZ=              0.1339

  Exact polarizability:  41.720   0.969  22.517   0.085   0.017  17.939
 Approx polarizability:  31.942  -1.138  20.571   0.075   0.062  15.537

 ******    1 imaginary frequencies (negative Signs) ******

                      1                      2                      3
                      A                      A                      A
 Frequencies --   -266.1352               228.7453               341.8742
 Red. masses --      1.1397                10.5502                 8.6234
 Frc consts  --      0.0476                 0.3252                 0.5938
 IR Inten    --    124.9990                 0.8021                 4.7020

                      4                      5                      6
                      A                      A                      A
 Frequencies --    452.0410               785.5975               966.9347
 Red. masses --     12.2679                12.9284                15.3757
 Frc consts  --      1.4770                 4.7011                 8.4699
 IR Inten    --    198.6951               170.3823                23.0774

                      7                      8                      9
                      A                      A                      A
 Frequencies --   1371.4206              1677.3073              3778.5236
 Red. masses --      1.1328                13.2253                 1.0676
 Frc consts  --      1.2553                21.9220                 8.9802
 IR Inten    --    152.1474               140.6651                82.2676

 - Thermochemistry -
 -------------------
 Temperature   298.150 Kelvin.  Pressure   1.00000 Atm.
 Atom     1 has atomic number  1 and mass   1.00783

 Molecular mass:    62.99564 amu.
 Principal axes and moments of inertia in atomic units:
                           1         2         3
     Eigenvalues --    32.86090 360.13238 392.92277
           X            0.99994   0.01062   0.00198
           Y           -0.01063   0.99993   0.00431
           Z           -0.00194  -0.00433   0.99999
 This molecule is an asymmetric top.
 Rotational symmetry number  1.
 Rotational temperatures (Kelvin)      2.63577     0.24051     0.22043
 Rotational constants (GHZ):          54.92062     5.01133     4.59312
    1 imaginary frequencies ignored.
 Zero-point vibrational energy      57435.4 (Joules/Mol)
                                   13.72738 (Kcal/Mol)
 Warning -- explicit consideration of   3 degrees of freedom as
           vibrations may cause significant error
 Vibrational temperatures:    329.11   491.88   650.39  1130.30  1391.20
          (Kelvin)           1973.17  2413.27  5436.45

 Zero-point correction=                           0.021876 (Hartree/Particle)
 Thermal correction to Energy=                    0.025993
 Thermal correction to Enthalpy=                  0.026937
 Thermal correction to Gibbs Free Energy=        -0.004246
 Sum of electronic and zero-point Energies=           -280.424904
 Sum of electronic and thermal Energies=              -280.420787
 Sum of electronic and thermal Enthalpies=            -280.419843
 Sum of electronic and thermal Free Energies=         -280.451026

                     E (Thermal)             CV                S
                      KCal/Mol        Cal/Mol-Kelvin    Cal/Mol-Kelvin
 Total                   16.311             11.953             65.631
 Electronic               0.000              0.000              0.000
 Translational            0.889              2.981             38.341
 Rotational               0.889              2.981             23.057
 Vibrational             14.534              5.991              4.234
 Vibration     1          0.651              1.797              1.889
 Vibration     2          0.721              1.592              1.203
 Vibration     3          0.811              1.356              0.790

                       ! Non-Optimized Parameters !

 1\1\GINC-N2228\Freq\RMP2-FC\Aug-CC-pVTZ\H1N1O3\CGAVINH\21-Feb-2022\1\\
 #p freq mp2/aug-cc-pvtz density=current\\title\\0,1\H\O,1,r1\O,2,r2,1,
 a1\N,3,r3,2,a2,1,d1,0\O,4,r4,3,a3,2,d2,0\\r1=0.96897556\r2=1.45491931\
 r3=1.45878406\r4=1.17072885\a1=97.59494903\a2=102.29752444\a3=109.0695
 5123\d1=186.20541358\d2=180.\\Version=ES64L-G16RevB.01\State=1-A\HF=-2
 79.5017213\MP2=-280.4467801\RMSD=7.527e-09\RMSF=3.099e-04\ZeroPoint=0.
 021876\Thermal=0.0259932\Dipole=-0.146506,-0.0126341,-0.5531873\Dipole
 Deriv=0.2661505,0.0009395,0.0481992,0.0010918,0.3551544,0.0010861,0.08

 Normal termination of Gaussian 16 at Mon Feb 21 21:00:18 2022.
