 Gaussian 16, Revision B.01,
 Gaussian 16:  ES64L-G16RevB.01 20-Dec-2017

 ---------------------------------------
 #p freq mp2/aug-cc-pvtz density=current
 ---------------------------------------

 -----
 title
 -----
 Symbolic Z-matrix:
 Charge =  0 Multiplicity = 1

                         Standard orientation:
 ---------------------------------------------------------------------
 Center     Atomic      Atomic             Coordinates (Angstroms)
 Number     Number       Type             X           Y           Z
 ---------------------------------------------------------------------
      1          1           0        1.116105   -0.606326    0.000000
      2          8           0        1.326560    0.356314    0.000000
      3          8           0        0.000000    0.918522    0.000000
      4          7           0       -0.995250   -0.039046    0.000000
      5          8           0       -0.595230   -1.164880    0.000000
 ---------------------------------------------------------------------

 SCF Done:  E(RHF) =  -279.505478987     A.U. after   14 cycles
 E2 =    -0.9496760617D+00 EUMP2 =    -0.28045515504840D+03
 E2 =    -0.9496760617D+00 EUMP2 =    -0.28045515504840D+03

 The electronic state is 1-A'.
 Alpha  occ. eigenvalues --  -20.71972 -20.68704 -20.66962 -15.82620  -1.64213
 Alpha  occ. eigenvalues --   -1.50043  -1.29556  -0.95961  -0.83218  -0.75795
 Alpha  occ. eigenvalues --   -0.73805  -0.63937  -0.61696  -0.61544  -0.50419
 Alpha  occ. eigenvalues --   -0.49985
 Alpha virt. eigenvalues --    0.03490   0.06033   0.09508   0.10020   0.11983
 Alpha virt. eigenvalues --    0.12228   0.14849   0.15104   0.17757   0.18054
 Alpha virt. eigenvalues --    0.18987   0.21093   0.21657   0.23599   0.24633

 Mulliken charges:
               1
     1  H    0.280199
     2  O   -0.275843
     3  O    0.034022
     4  N    0.156619
     5  O   -0.194998
 Sum of Mulliken charges =  -0.00000

 Dipole moment (field-independent basis, Debye):
    X=              0.0275    Y=             -1.1119    Z=              0.0000  Tot=              1.1123
 Quadrupole moment (field-independent basis, Debye-Ang):
   XX=            -23.3793   YY=            -22.9182   ZZ=            -21.9520
   XY=             -2.0052   XZ=              0.0000   YZ=              0.0000

  Exact polarizability:  31.167   4.067  29.853   0.000   0.000  17.659
 Approx polarizability:  24.857   0.413  27.717  -0.000  -0.000  15.536

                      1                      2                      3
                     A"                     A'                     A"
 Frequencies --    353.2152               394.8264               522.1831
 Red. masses --      1.5456                 7.0801                 2.9510
 Frc consts  --      0.1136                 0.6503                 0.4741
 IR Inten    --     63.4442                 7.5840                25.2790

                      4                      5                      6
                     A'                     A'                     A'
 Frequencies --    707.1319               810.6750               956.0382
 Red. masses --     13.2858                13.1101                 9.2502
 Frc consts  --      3.9142                 5.0763                 4.9814
 IR Inten    --    211.3576                33.0453                13.4440

                      7                      8                      9
                     A'                     A'                     A'
 Frequencies --   1420.7439              1567.3024              3493.4086
 Red. masses --      1.2753                 7.3047                 1.0640
 Frc consts  --      1.5167                10.5720                 7.6505
 IR Inten    --     80.6935               148.8121                41.9575

 - Thermochemistry -
 -------------------
 Temperature   298.150 Kelvin.  Pressure   1.00000 Atm.
 Atom     1 has atomic number  1 and mass   1.00783

 Molecular mass:    62.99564 amu.
 Principal axes and moments of inertia in atomic units:
                           1         2         3
     Eigenvalues --    85.35307 223.67263 309.02570
           X            0.80370  -0.59504   0.00000
           Y            0.59504   0.80370   0.00000
           Z            0.00000   0.00000   1.00000
 This molecule is an asymmetric top.
 Rotational symmetry number  1.
 Rotational temperatures (Kelvin)      1.01477     0.38724     0.28028
 Rotational constants (GHZ):          21.14442     8.06867     5.84010
 Zero-point vibrational energy      61162.2 (Joules/Mol)
                                   14.61812 (Kcal/Mol)
 Warning -- explicit consideration of   3 degrees of freedom as
           vibrations may cause significant error
 Vibrational temperatures:    508.20   568.07   751.30  1017.41  1166.38
          (Kelvin)           1375.53  2044.13  2255.00  5026.24

 Zero-point correction=                           0.023295 (Hartree/Particle)
 Thermal correction to Energy=                    0.027248
 Thermal correction to Enthalpy=                  0.028192
 Thermal correction to Gibbs Free Energy=        -0.002695
 Sum of electronic and zero-point Energies=           -280.431860
 Sum of electronic and thermal Energies=              -280.427907
 Sum of electronic and thermal Enthalpies=            -280.426963
 Sum of electronic and thermal Free Energies=         -280.457850

                     E (Thermal)             CV                S
                      KCal/Mol        Cal/Mol-Kelvin    Cal/Mol-Kelvin
 Total                   17.098             12.247             65.006
 Electronic               0.000              0.000              0.000
 Translational            0.889              2.981             38.341
 Rotational               0.889              2.981             23.294
 Vibrational             15.321              6.285              3.372
 Vibration     1          0.729              1.569              1.152
 Vibration     2          0.762              1.481              0.982
 Vibration     3          0.877              1.201              0.605

                       ! Non-Optimized Parameters !

 1\1\GINC-N2228\Freq\RMP2-FC\Aug-CC-pVTZ\H1N1O3\CGAVINH\06-Mar-2022\1\\
 #p freq mp2/aug-cc-pvtz density=current\\title\\0,1\H\O,1,r1\O,2,r2,1,
 a1\N,3,r3,2,a2,1,d1,0\O,4,r4,3,a3,2,d2,0\\r1=0.98537664\r2=1.44077793\
 r3=1.38110764\r4=1.19478846\a1=100.6355057\a2=113.13777052\a3=114.3339
 2022\d1=0.\d2=0.\\Version=ES64L-G16RevB.01\State=1-A'\HF=-279.505479\M
 P2=-280.455155\RMSD=4.687e-09\RMSF=2.105e-03\ZeroPoint=0.0232955\Therm
 al=0.0272478\Dipole=-0.1040113,0.,-0.4250598\DipoleDeriv=0.3167601,0.,
 0.0373564,0.,0.2987103,0.,-0.0199746,0.,0.1981539,-0.5307076,0.,0.2680

 Normal termination of Gaussian 16 at Sun Mar  6 18:59:17 2022.
