 Gaussian 16, Revision B.01,
 Gaussian 16:  ES64L-G16RevB.01 20-Dec-2017

 ---------------------------------------
 #p freq mp2/aug-cc-pvtz density=current
 ---------------------------------------

 -----
 title
 -----
 Symbolic Z-matrix:
 Charge =  0 Multiplicity = 1

                         Standard orientation:
 ---------------------------------------------------------------------
 Center     Atomic      Atomic             Coordinates (Angstroms)
 Number     Number       Type             X           Y           Z
 ---------------------------------------------------------------------
      1          1           0        1.107640   -0.596512    0.000000
      2          8           0        1.315264    0.366743    0.000000
      3          8           0       -0.000000    0.919606    0.000000
      4          7           0       -0.992429   -0.040885   -0.000000
      5          8           0       -0.585344   -1.176011   -0.000000
 ---------------------------------------------------------------------

 SCF Done:  E(RHF) =  -279.504363624     A.U. after   14 cycles
 E2 =    -0.9507276613D+00 EUMP2 =    -0.28045509128482D+03
 E2 =    -0.9507276613D+00 EUMP2 =    -0.28045509128482D+03

 The electronic state is 1-A'.
 Alpha  occ. eigenvalues --  -20.72233 -20.68670 -20.66926 -15.82782  -1.63839
 Alpha  occ. eigenvalues --   -1.50234  -1.29487  -0.96203  -0.83239  -0.75662
 Alpha  occ. eigenvalues --   -0.73839  -0.63728  -0.61851  -0.61579  -0.50668
 Alpha  occ. eigenvalues --   -0.49821
 Alpha virt. eigenvalues --    0.03514   0.05682   0.09504   0.10031   0.11997
 Alpha virt. eigenvalues --    0.12250   0.14933   0.15201   0.17720   0.18042
 Alpha virt. eigenvalues --    0.18976   0.21101   0.21665   0.24148   0.24615

 Mulliken charges:
               1
     1  H    0.278821
     2  O   -0.273413
     3  O    0.040325
     4  N    0.154292
     5  O   -0.200025
 Sum of Mulliken charges =  -0.00000

 Dipole moment (field-independent basis, Debye):
    X=              0.0777    Y=             -1.0454    Z=             -0.0000  Tot=              1.0483
 Quadrupole moment (field-independent basis, Debye-Ang):
   XX=            -23.3992   YY=            -22.9559   ZZ=            -21.9555
   XY=             -1.9988   XZ=             -0.0000   YZ=             -0.0000

  Exact polarizability:  31.009   4.214  30.099   0.000   0.000  17.651
 Approx polarizability:  24.633   0.497  27.955   0.000   0.000  15.566

                      1                      2                      3
                     A"                     A'                     A"
 Frequencies --    359.4835               398.2056               533.4554
 Red. masses --      1.5129                 7.0194                 3.0725
 Frc consts  --      0.1152                 0.6558                 0.5152
 IR Inten    --     64.8660                 8.2141                23.5167

                      4                      5                      6
                     A'                     A'                     A'
 Frequencies --    715.9648               836.8067               968.2330
 Red. masses --     13.1052                12.4684                 9.8830
 Frc consts  --      3.9580                 5.1441                 5.4588
 IR Inten    --    211.9151                35.4913                13.6527

                      7                      8                      9
                     A'                     A'                     A'
 Frequencies --   1424.0623              1517.3867              3486.1330
 Red. masses --      1.5456                 3.6380                 1.0638
 Frc consts  --      1.8468                 4.9352                 7.6171
 IR Inten    --     78.4375               139.7875                42.9812

 - Thermochemistry -
 -------------------
 Temperature   298.150 Kelvin.  Pressure   1.00000 Atm.
 Atom     1 has atomic number  1 and mass   1.00783

 Molecular mass:    62.99564 amu.
 Principal axes and moments of inertia in atomic units:
                           1         2         3
     Eigenvalues --    85.24785 223.05783 308.30568
           X            0.79332  -0.60881   0.00000
           Y            0.60881   0.79332   0.00000
           Z           -0.00000   0.00000   1.00000
 This molecule is an asymmetric top.
 Rotational symmetry number  1.
 Rotational temperatures (Kelvin)      1.01602     0.38830     0.28094
 Rotational constants (GHZ):          21.17052     8.09091     5.85374
 Zero-point vibrational energy      61247.2 (Joules/Mol)
                                   14.63843 (Kcal/Mol)
 Warning -- explicit consideration of   3 degrees of freedom as
           vibrations may cause significant error
 Vibrational temperatures:    517.22   572.93   767.52  1030.11  1203.98
          (Kelvin)           1393.07  2048.91  2183.18  5015.77

 Zero-point correction=                           0.023328 (Hartree/Particle)
 Thermal correction to Energy=                    0.027251
 Thermal correction to Enthalpy=                  0.028195
 Thermal correction to Gibbs Free Energy=        -0.002642
 Sum of electronic and zero-point Energies=           -280.431763
 Sum of electronic and thermal Energies=              -280.427841
 Sum of electronic and thermal Enthalpies=            -280.426896
 Sum of electronic and thermal Free Energies=         -280.457733

                     E (Thermal)             CV                S
                      KCal/Mol        Cal/Mol-Kelvin    Cal/Mol-Kelvin
 Total                   17.100             12.140             64.902
 Electronic               0.000              0.000              0.000
 Translational            0.889              2.981             38.341
 Rotational               0.889              2.981             23.287
 Vibrational             15.323              6.178              3.274
 Vibration     1          0.734              1.556              1.124
 Vibration     2          0.764              1.474              0.969
 Vibration     3          0.888              1.176              0.580

                       ! Non-Optimized Parameters !

 1\1\GINC-N2108\Freq\RMP2-FC\Aug-CC-pVTZ\H1N1O3\CGAVINH\06-Mar-2022\1\\
 #p freq mp2/aug-cc-pvtz density=current\\title\\0,1\H\O,1,r1\O,2,r2,1,
 a1\N,3,r3,2,a2,1,d1,0\O,4,r4,3,a3,2,d2,0\\r1=0.98537664\r2=1.42673666\
 r3=1.38110764\r4=1.2059141\a1=100.6355057\a2=113.13777052\a3=114.33392
 022\d1=0.\d2=0.\\Version=ES64L-G16RevB.01\State=1-A'\HF=-279.5043636\M
 P2=-280.4550913\RMSD=5.145e-09\RMSF=4.927e-03\ZeroPoint=0.0233278\Ther
 mal=0.0272507\Dipole=-0.1165498,0.,-0.395626\DipoleDeriv=0.3171784,0.,
 0.0382418,0.,0.2980064,0.,-0.023923,0.,0.2007937,-0.5291639,0.,0.28536

 Normal termination of Gaussian 16 at Sun Mar  6 19:17:28 2022.
