 Gaussian 16, Revision B.01,
 Gaussian 16:  ES64L-G16RevB.01 20-Dec-2017

 ---------------------------------------
 #p freq mp2/aug-cc-pvtz density=current
 ---------------------------------------

 -----
 title
 -----
 Symbolic Z-matrix:
 Charge =  0 Multiplicity = 1

                         Standard orientation:
 ---------------------------------------------------------------------
 Center     Atomic      Atomic             Coordinates (Angstroms)
 Number     Number       Type             X           Y           Z
 ---------------------------------------------------------------------
      1          1           0        1.547663    1.673708    0.000000
      2          8           0        1.454060    0.723446    0.000000
      3          8           0       -0.000000    0.673448    0.000000
      4          7           0       -0.261540   -0.761699   -0.000000
      5          8           0       -1.418670   -0.939620   -0.000000
 ---------------------------------------------------------------------

 SCF Done:  E(RHF) =  -279.502172450     A.U. after   14 cycles
 E2 =    -0.9443741011D+00 EUMP2 =    -0.28044654655066D+03
 E2 =    -0.9443741011D+00 EUMP2 =    -0.28044654655066D+03

 The electronic state is 1-A'.
 Alpha  occ. eigenvalues --  -20.69127 -20.68457 -20.65886 -15.81313  -1.62436
 Alpha  occ. eigenvalues --   -1.49753  -1.25721  -0.94840  -0.77401  -0.76030
 Alpha  occ. eigenvalues --   -0.71213  -0.68150  -0.62088  -0.59011  -0.48571
 Alpha  occ. eigenvalues --   -0.47289
 Alpha virt. eigenvalues --    0.02989   0.07145   0.08588   0.10168   0.13385
 Alpha virt. eigenvalues --    0.13392   0.14464   0.15507   0.17805   0.19414
 Alpha virt. eigenvalues --    0.19976   0.20637   0.22076   0.23503   0.23725

 Mulliken charges:
               1
     1  H    0.238053
     2  O   -0.189416
     3  O   -0.148064
     4  N    0.292697
     5  O   -0.193270
 Sum of Mulliken charges =  -0.00000

 Dipole moment (field-independent basis, Debye):
    X=              0.5007    Y=              1.3427    Z=              0.0000  Tot=              1.4330
 Quadrupole moment (field-independent basis, Debye-Ang):
   XX=            -22.4627   YY=            -18.6703   ZZ=            -21.9925
   XY=              3.2280   XZ=             -0.0000   YZ=             -0.0000

  Exact polarizability:  33.936   9.406  30.059   0.000   0.000  17.893
 Approx polarizability:  28.969   5.087  23.376   0.000   0.000  15.499

 ******    1 imaginary frequencies (negative Signs) ******

                      1                      2                      3
                     A"                     A"                     A'
 Frequencies --   -531.7781               228.2261               325.8679
 Red. masses --      1.1198                12.3008                 7.9478
 Frc consts  --      0.1866                 0.3775                 0.4973
 IR Inten    --    126.9748                 0.0893                 5.7914

                      4                      5                      6
                     A'                     A'                     A'
 Frequencies --    451.8913               779.4508               966.2114
 Red. masses --     12.2992                12.1547                15.6675
 Frc consts  --      1.4798                 4.3508                 8.6178
 IR Inten    --    198.7807               159.3997                26.3087

                      7                      8                      9
                     A'                     A'                     A'
 Frequencies --   1322.2786              1677.0428              3965.2756
 Red. masses --      1.1484                13.5057                 1.0675
 Frc consts  --      1.1830                22.3797                 9.8894
 IR Inten    --    155.7129               143.0755                84.2549

 - Thermochemistry -
 -------------------
 Temperature   298.150 Kelvin.  Pressure   1.00000 Atm.
 Atom     1 has atomic number  1 and mass   1.00783

 Molecular mass:    62.99564 amu.
 Principal axes and moments of inertia in atomic units:
                           1         2         3
     Eigenvalues --    32.80524 359.99344 392.79868
           X            0.81030  -0.58602   0.00000
           Y            0.58602   0.81030   0.00000
           Z            0.00000  -0.00000   1.00000
 This molecule is an asymmetric top.
 Rotational symmetry number  1.
 Rotational temperatures (Kelvin)      2.64025     0.24060     0.22050
 Rotational constants (GHZ):          55.01380     5.01326     4.59457
    1 imaginary frequencies ignored.
 Zero-point vibrational energy      58116.0 (Joules/Mol)
                                   13.89007 (Kcal/Mol)
 Warning -- explicit consideration of   3 degrees of freedom as
           vibrations may cause significant error
 Vibrational temperatures:    328.37   468.85   650.17  1121.46  1390.16
          (Kelvin)           1902.46  2412.89  5705.15

 Zero-point correction=                           0.022135 (Hartree/Particle)
 Thermal correction to Energy=                    0.026276
 Thermal correction to Enthalpy=                  0.027220
 Thermal correction to Gibbs Free Energy=        -0.004006
 Sum of electronic and zero-point Energies=           -280.424411
 Sum of electronic and thermal Energies=              -280.420271
 Sum of electronic and thermal Enthalpies=            -280.419327
 Sum of electronic and thermal Free Energies=         -280.450553

                     E (Thermal)             CV                S
                      KCal/Mol        Cal/Mol-Kelvin    Cal/Mol-Kelvin
 Total                   16.488             12.018             65.721
 Electronic               0.000              0.000              0.000
 Translational            0.889              2.981             38.341
 Rotational               0.889              2.981             23.055
 Vibrational             14.711              6.057              4.326
 Vibration     1          0.651              1.798              1.893
 Vibration     2          0.710              1.624              1.280
 Vibration     3          0.811              1.357              0.790

                       ! Non-Optimized Parameters !

 1\1\GINC-N2126\Freq\RMP2-FC\Aug-CC-pVTZ\H1N1O3\CGAVINH\21-Feb-2022\1\\
 #p freq mp2/aug-cc-pvtz density=current\\title\\0,1\H\O,1,r1\O,2,r2,1,
 a1\N,3,r3,2,a2,1,d1,0\O,4,r4,3,a3,2,d2,0\\r1=0.95486106\r2=1.45491931\
 r3=1.45878406\r4=1.17072885\a1=97.59494903\a2=102.29752444\a3=109.0695
 5123\d1=180.\d2=180.\\Version=ES64L-G16RevB.01\State=1-A'\HF=-279.5021
 724\MP2=-280.4465466\RMSD=3.787e-09\RMSF=5.243e-03\ZeroPoint=0.0221352
 \Thermal=0.0262757\Dipole=-0.1442609,0.,-0.5450232\DipoleDeriv=0.26460
 01,0.,0.0486709,0.,0.3575387,0.,0.0849174,0.,0.2774776,-0.328091,0.,-0

 Normal termination of Gaussian 16 at Mon Feb 21 20:07:22 2022.
