 Gaussian 16, Revision B.01,
 Gaussian 16:  ES64L-G16RevB.01 20-Dec-2017

 ---------------------------------------
 #p freq mp2/aug-cc-pvtz density=current
 ---------------------------------------

 -----
 title
 -----
 Symbolic Z-matrix:
 Charge =  0 Multiplicity = 1

                         Standard orientation:
 ---------------------------------------------------------------------
 Center     Atomic      Atomic             Coordinates (Angstroms)
 Number     Number       Type             X           Y           Z
 ---------------------------------------------------------------------
      1          1           0       -2.248631    0.434251   -0.019291
      2          8           0       -1.598347   -0.284098   -0.014944
      3          8           0       -0.400483    0.541071    0.016826
      4          7           0        0.663853   -0.456504    0.025911
      5          8           0        1.699038    0.088186   -0.022142
 ---------------------------------------------------------------------

 SCF Done:  E(RHF) =  -279.501627702     A.U. after   14 cycles
 E2 =    -0.9450160284D+00 EUMP2 =    -0.28044664373001D+03
 E2 =    -0.9450160284D+00 EUMP2 =    -0.28044664373001D+03

 The electronic state is 1-A.
 Alpha  occ. eigenvalues --  -20.69081 -20.68435 -20.65999 -15.81280  -1.62404
 Alpha  occ. eigenvalues --   -1.49573  -1.25440  -0.94806  -0.77277  -0.75917
 Alpha  occ. eigenvalues --   -0.71194  -0.67921  -0.62051  -0.58939  -0.48522
 Alpha  occ. eigenvalues --   -0.47249
 Alpha virt. eigenvalues --    0.02963   0.07161   0.08598   0.10172   0.13279
 Alpha virt. eigenvalues --    0.13506   0.14409   0.15454   0.17816   0.19414
 Alpha virt. eigenvalues --    0.19966   0.20650   0.22086   0.23484   0.23807

 Mulliken charges:
               1
     1  H    0.250312
     2  O   -0.201568
     3  O   -0.147370
     4  N    0.291687
     5  O   -0.193061
 Sum of Mulliken charges =  -0.00000

 Dipole moment (field-independent basis, Debye):
    X=             -1.2168    Y=              0.7910    Z=             -0.0070  Tot=              1.4513
 Quadrupole moment (field-independent basis, Debye-Ang):
   XX=            -17.9880   YY=            -23.0931   ZZ=            -22.0129
   XY=             -2.7903   XZ=              0.1039   YZ=              0.0405

  Exact polarizability:  41.714  -0.975  22.518  -0.062  -0.043  17.939
 Approx polarizability:  31.936   1.130  20.577  -0.125  -0.009  15.535

 ******    1 imaginary frequencies (negative Signs) ******

                      1                      2                      3
                      A                      A                      A
 Frequencies --   -269.5037               227.6627               341.6225
 Red. masses --      1.1387                10.5225                 8.6280
 Frc consts  --      0.0487                 0.3213                 0.5933
 IR Inten    --    124.7252                 1.2012                 4.3983

                      4                      5                      6
                      A                      A                      A
 Frequencies --    451.7722               785.5648               967.2457
 Red. masses --     12.3098                12.9147                15.3947
 Frc consts  --      1.4803                 4.6957                 8.4858
 IR Inten    --    199.4848               170.5697                22.5408

                      7                      8                      9
                      A                      A                      A
 Frequencies --   1371.1853              1677.1795              3778.6956
 Red. masses --      1.1334                13.2089                 1.0675
 Frc consts  --      1.2555                21.8915                 8.9809
 IR Inten    --    152.8752               140.3796                82.5743

 - Thermochemistry -
 -------------------
 Temperature   298.150 Kelvin.  Pressure   1.00000 Atm.
 Atom     1 has atomic number  1 and mass   1.00783

 Molecular mass:    62.99564 amu.
 Principal axes and moments of inertia in atomic units:
                           1         2         3
     Eigenvalues --    32.91963 360.05190 392.78808
           X            0.99994  -0.01071   0.00044
           Y            0.01071   0.99994  -0.00096
           Z           -0.00043   0.00096   1.00000
 This molecule is an asymmetric top.
 Rotational symmetry number  1.
 Rotational temperatures (Kelvin)      2.63107     0.24056     0.22051
 Rotational constants (GHZ):          54.82264     5.01245     4.59469
    1 imaginary frequencies ignored.
 Zero-point vibrational energy      57426.3 (Joules/Mol)
                                   13.72522 (Kcal/Mol)
 Warning -- explicit consideration of   3 degrees of freedom as
           vibrations may cause significant error
 Vibrational temperatures:    327.56   491.52   650.00  1130.25  1391.65
          (Kelvin)           1972.83  2413.09  5436.70

 Zero-point correction=                           0.021873 (Hartree/Particle)
 Thermal correction to Energy=                    0.025992
 Thermal correction to Enthalpy=                  0.026936
 Thermal correction to Gibbs Free Energy=        -0.004253
 Sum of electronic and zero-point Energies=           -280.424771
 Sum of electronic and thermal Energies=              -280.420652
 Sum of electronic and thermal Enthalpies=            -280.419708
 Sum of electronic and thermal Free Energies=         -280.450897

                     E (Thermal)             CV                S
                      KCal/Mol        Cal/Mol-Kelvin    Cal/Mol-Kelvin
 Total                   16.310             11.956             65.643
 Electronic               0.000              0.000              0.000
 Translational            0.889              2.981             38.341
 Rotational               0.889              2.981             23.058
 Vibrational             14.533              5.994              4.244
 Vibration     1          0.651              1.799              1.897
 Vibration     2          0.721              1.592              1.205
 Vibration     3          0.810              1.357              0.790

                       ! Non-Optimized Parameters !

 1\1\GINC-N2110\Freq\RMP2-FC\Aug-CC-pVTZ\H1N1O3\CGAVINH\21-Feb-2022\1\\
 #p freq mp2/aug-cc-pvtz density=current\\title\\0,1\H\O,1,r1\O,2,r2,1,
 a1\N,3,r3,2,a2,1,d1,0\O,4,r4,3,a3,2,d2,0\\r1=0.96897556\r2=1.45491931\
 r3=1.45878406\r4=1.17072885\a1=97.59494903\a2=102.29752444\a3=109.0695
 5123\d1=180.\d2=176.18458138\\Version=ES64L-G16RevB.01\State=1-A\HF=-2
 79.5016277\MP2=-280.4466437\RMSD=8.751e-09\RMSF=6.165e-04\ZeroPoint=0.
 0218725\Thermal=0.0259919\Dipole=-0.1460301,0.0028457,-0.5519825\Dipol
 eDeriv=0.26637,0.0005696,0.0482317,-0.0013295,0.355564,-0.0016772,0.08

 Normal termination of Gaussian 16 at Mon Feb 21 21:17:52 2022.
