 Gaussian 16, Revision B.01,
 Gaussian 16:  ES64L-G16RevB.01 20-Dec-2017

 ---------------------------------------
 #p freq mp2/aug-cc-pvtz density=current
 ---------------------------------------

 -----
 title
 -----
 Symbolic Z-matrix:
 Charge =  0 Multiplicity = 1

                         Standard orientation:
 ---------------------------------------------------------------------
 Center     Atomic      Atomic             Coordinates (Angstroms)
 Number     Number       Type             X           Y           Z
 ---------------------------------------------------------------------
      1          1           0        1.550654    1.691131    0.000000
      2          8           0        1.454137    0.726974    0.000000
      3          8           0       -0.000000    0.679284    0.000000
      4          7           0       -0.263817   -0.755447   -0.000000
      5          8           0       -1.417130   -0.956633   -0.000000
 ---------------------------------------------------------------------

 SCF Done:  E(RHF) =  -279.501479384     A.U. after   14 cycles
 E2 =    -0.9451417097D+00 EUMP2 =    -0.28044662109376D+03
 E2 =    -0.9451417097D+00 EUMP2 =    -0.28044662109376D+03

 The electronic state is 1-A'.
 Alpha  occ. eigenvalues --  -20.69140 -20.68473 -20.66076 -15.81239  -1.62302
 Alpha  occ. eigenvalues --   -1.49665  -1.25540  -0.94775  -0.77344  -0.75877
 Alpha  occ. eigenvalues --   -0.71156  -0.67969  -0.62094  -0.59049  -0.48580
 Alpha  occ. eigenvalues --   -0.47096
 Alpha virt. eigenvalues --    0.02953   0.07220   0.08570   0.10173   0.13402
 Alpha virt. eigenvalues --    0.13403   0.14403   0.15461   0.17813   0.19422
 Alpha virt. eigenvalues --    0.19976   0.20612   0.22081   0.23420   0.23722

 Mulliken charges:
               1
     1  H    0.250297
     2  O   -0.198925
     3  O   -0.148866
     4  N    0.290306
     5  O   -0.192811
 Sum of Mulliken charges =  -0.00000

 Dipole moment (field-independent basis, Debye):
    X=              0.5043    Y=              1.3766    Z=              0.0000  Tot=              1.4661
 Quadrupole moment (field-independent basis, Debye-Ang):
   XX=            -22.4293   YY=            -18.6239   ZZ=            -22.0166
   XY=              3.2864   XZ=             -0.0000   YZ=              0.0000

  Exact polarizability:  34.033   9.587  30.442   0.000  -0.000  17.951
 Approx polarizability:  28.971   5.266  23.651   0.000   0.000  15.533

 ******    1 imaginary frequencies (negative Signs) ******

                      1                      2                      3
                     A"                     A"                     A'
 Frequencies --   -273.2984               227.2091               340.6962
 Red. masses --      1.1438                10.0331                 8.5731
 Frc consts  --      0.0503                 0.3052                 0.5863
 IR Inten    --    124.3783                 1.1224                 6.6920

                      4                      5                      6
                     A'                     A'                     A'
 Frequencies --    441.1777               786.9735               966.1790
 Red. masses --     12.4765                12.9047                15.3023
 Frc consts  --      1.4308                 4.7089                 8.4163
 IR Inten    --    199.0490               175.7447                24.8822

                      7                      8                      9
                     A'                     A'                     A'
 Frequencies --   1370.9907              1676.9432              3778.9163
 Red. masses --      1.1337                13.1525                 1.0676
 Frc consts  --      1.2555                21.7919                 8.9820
 IR Inten    --    155.3320               144.0559                83.5189

 - Thermochemistry -
 -------------------
 Temperature   298.150 Kelvin.  Pressure   1.00000 Atm.
 Atom     1 has atomic number  1 and mass   1.00783

 Molecular mass:    62.99564 amu.
 Principal axes and moments of inertia in atomic units:
                           1         2         3
     Eigenvalues --    32.64732 362.32661 394.97393
           X            0.80726  -0.59020   0.00000
           Y            0.59020   0.80726   0.00000
           Z           -0.00000   0.00000   1.00000
 This molecule is an asymmetric top.
 Rotational symmetry number  1.
 Rotational temperatures (Kelvin)      2.65302     0.23905     0.21929
 Rotational constants (GHZ):          55.27992     4.98098     4.56927
    1 imaginary frequencies ignored.
 Zero-point vibrational energy      57355.5 (Joules/Mol)
                                   13.70829 (Kcal/Mol)
 Warning -- explicit consideration of   3 degrees of freedom as
           vibrations may cause significant error
 Vibrational temperatures:    326.90   490.19   634.76  1132.28  1390.12
          (Kelvin)           1972.55  2412.75  5437.02

 Zero-point correction=                           0.021846 (Hartree/Particle)
 Thermal correction to Energy=                    0.025975
 Thermal correction to Enthalpy=                  0.026920
 Thermal correction to Gibbs Free Energy=        -0.004290
 Sum of electronic and zero-point Energies=           -280.424776
 Sum of electronic and thermal Energies=              -280.420646
 Sum of electronic and thermal Enthalpies=            -280.419701
 Sum of electronic and thermal Free Energies=         -280.450911

                     E (Thermal)             CV                S
                      KCal/Mol        Cal/Mol-Kelvin    Cal/Mol-Kelvin
 Total                   16.300             11.980             65.686
 Electronic               0.000              0.000              0.000
 Translational            0.889              2.981             38.341
 Rotational               0.889              2.981             23.062
 Vibrational             14.522              6.019              4.284
 Vibration     1          0.651              1.800              1.901
 Vibration     2          0.720              1.594              1.209
 Vibration     3          0.801              1.380              0.823

                       ! Non-Optimized Parameters !

 1\1\GINC-N2124\Freq\RMP2-FC\Aug-CC-pVTZ\H1N1O3\CGAVINH\21-Feb-2022\1\\
 #p freq mp2/aug-cc-pvtz density=current\\title\\0,1\H\O,1,r1\O,2,r2,1,
 a1\N,3,r3,2,a2,1,d1,0\O,4,r4,3,a3,2,d2,0\\r1=0.96897556\r2=1.45491931\
 r3=1.45878406\r4=1.17072885\a1=97.59494903\a2=102.29752444\a3=110.3143
 1566\d1=180.\d2=180.\\Version=ES64L-G16RevB.01\State=1-A'\HF=-279.5014
 794\MP2=-280.4466211\RMSD=3.852e-09\RMSF=2.317e-03\ZeroPoint=0.0218455
 \Thermal=0.0259754\Dipole=-0.1434822,0.,-0.5586716\DipoleDeriv=0.26705
 58,0.,0.0486514,0.,0.3557818,0.,0.0831649,0.,0.277457,-0.3255705,0.,-0

 Normal termination of Gaussian 16 at Mon Feb 21 20:55:21 2022.
