 Gaussian 16, Revision B.01,
 Gaussian 16:  ES64L-G16RevB.01 20-Dec-2017

 ---------------------------------------
 #p freq mp2/aug-cc-pvtz density=current
 ---------------------------------------

 -----
 title
 -----
 Symbolic Z-matrix:
 Charge =  0 Multiplicity = 1

                         Standard orientation:
 ---------------------------------------------------------------------
 Center     Atomic      Atomic             Coordinates (Angstroms)
 Number     Number       Type             X           Y           Z
 ---------------------------------------------------------------------
      1          1           0        1.095244   -0.616160    0.000000
      2          8           0        1.310713    0.345370    0.000000
      3          8           0        0.000000    0.908938    0.000000
      4          7           0       -0.982275   -0.026338    0.000000
      5          8           0       -0.588128   -1.154242    0.000000
 ---------------------------------------------------------------------

 SCF Done:  E(RHF) =  -279.508268016     A.U. after   14 cycles
 E2 =    -0.9467381404D+00 EUMP2 =    -0.28045500615618D+03
 E2 =    -0.9467381404D+00 EUMP2 =    -0.28045500615618D+03

 The electronic state is 1-A'.
 Alpha  occ. eigenvalues --  -20.72396 -20.68140 -20.66965 -15.82296  -1.65098
 Alpha  occ. eigenvalues --   -1.50504  -1.30276  -0.95914  -0.83732  -0.76220
 Alpha  occ. eigenvalues --   -0.74583  -0.63841  -0.61779  -0.61604  -0.50477
 Alpha  occ. eigenvalues --   -0.49992
 Alpha virt. eigenvalues --    0.03496   0.06400   0.09514   0.10050   0.11970
 Alpha virt. eigenvalues --    0.12310   0.14856   0.15156   0.17738   0.18072
 Alpha virt. eigenvalues --    0.18960   0.21124   0.21661   0.24266   0.24647

 Mulliken charges:
               1
     1  H    0.278067
     2  O   -0.277813
     3  O    0.057399
     4  N    0.145603
     5  O   -0.203255
 Sum of Mulliken charges =  -0.00000

 Dipole moment (field-independent basis, Debye):
    X=              0.1095    Y=             -0.9814    Z=              0.0000  Tot=              0.9875
 Quadrupole moment (field-independent basis, Debye-Ang):
   XX=            -23.4638   YY=            -22.8865   ZZ=            -21.8926
   XY=             -2.0260   XZ=              0.0000   YZ=              0.0000

  Exact polarizability:  30.791   3.955  29.490   0.000   0.000  17.538
 Approx polarizability:  24.371   0.410  27.284  -0.000  -0.000  15.472

                      1                      2                      3
                     A"                     A'                     A"
 Frequencies --    363.8752               416.9292               528.7982
 Red. masses --      1.6309                 6.8982                 2.6822
 Frc consts  --      0.1272                 0.7065                 0.4419
 IR Inten    --     60.8782                 7.4057                27.8472

                      4                      5                      6
                     A'                     A'                     A'
 Frequencies --    802.9963               838.8648               978.0020
 Red. masses --     12.9134                13.0105                 9.4667
 Frc consts  --      4.9059                 5.3942                 5.3349
 IR Inten    --    176.2129                48.8616                16.0796

                      7                      8                      9
                     A'                     A'                     A'
 Frequencies --   1431.4287              1583.5707              3484.5084
 Red. masses --      1.2927                 6.9995                 1.0634
 Frc consts  --      1.5606                10.3417                 7.6073
 IR Inten    --     81.9789               150.7438                47.2560

 - Thermochemistry -
 -------------------
 Temperature   298.150 Kelvin.  Pressure   1.00000 Atm.
 Atom     1 has atomic number  1 and mass   1.00783

 Molecular mass:    62.99564 amu.
 Principal axes and moments of inertia in atomic units:
                           1         2         3
     Eigenvalues --    84.48736 217.37751 301.86487
           X            0.80397  -0.59467   0.00000
           Y            0.59467   0.80397   0.00000
           Z            0.00000   0.00000   1.00000
 This molecule is an asymmetric top.
 Rotational symmetry number  1.
 Rotational temperatures (Kelvin)      1.02517     0.39845     0.28693
 Rotational constants (GHZ):          21.36108     8.30234     5.97864
 Zero-point vibrational energy      62379.1 (Joules/Mol)
                                   14.90897 (Kcal/Mol)
 Warning -- explicit consideration of   3 degrees of freedom as
           vibrations may cause significant error
 Vibrational temperatures:    523.54   599.87   760.82  1155.33  1206.94
          (Kelvin)           1407.13  2059.51  2278.41  5013.43

 Zero-point correction=                           0.023759 (Hartree/Particle)
 Thermal correction to Energy=                    0.027630
 Thermal correction to Enthalpy=                  0.028574
 Thermal correction to Gibbs Free Energy=        -0.002157
 Sum of electronic and zero-point Energies=           -280.431247
 Sum of electronic and thermal Energies=              -280.427376
 Sum of electronic and thermal Enthalpies=            -280.426432
 Sum of electronic and thermal Free Energies=         -280.457163

                     E (Thermal)             CV                S
                      KCal/Mol        Cal/Mol-Kelvin    Cal/Mol-Kelvin
 Total                   17.338             11.915             64.679
 Electronic               0.000              0.000              0.000
 Translational            0.889              2.981             38.341
 Rotational               0.889              2.981             23.232
 Vibrational             15.561              5.954              3.107
 Vibration     1          0.737              1.547              1.106
 Vibration     2          0.780              1.433              0.902
 Vibration     3          0.884              1.186              0.590

                       ! Non-Optimized Parameters !

 1\1\GINC-N2095\Freq\RMP2-FC\Aug-CC-pVTZ\H1N1O3\CGAVINH\06-Mar-2022\1\\
 #p freq mp2/aug-cc-pvtz density=current\\title\\0,1\H\O,1,r1\O,2,r2,1,
 a1\N,3,r3,2,a2,1,d1,0\O,4,r4,3,a3,2,d2,0\\r1=0.98537664\r2=1.42673666\
 r3=1.35632099\r4=1.19478846\a1=100.6355057\a2=113.13777052\a3=114.3339
 2022\d1=0.\d2=0.\\Version=ES64L-G16RevB.01\State=1-A'\HF=-279.508268\M
 P2=-280.4550062\RMSD=3.742e-09\RMSF=3.553e-03\ZeroPoint=0.0237589\Ther
 mal=0.0276302\Dipole=-0.1264625,0.,-0.3673663\DipoleDeriv=0.3230618,0.
 ,0.0358087,0.,0.2983634,0.,-0.0277509,0.,0.2104051,-0.5374169,0.,0.284

 Normal termination of Gaussian 16 at Sun Mar  6 19:13:15 2022.
