 Gaussian 16, Revision B.01,
 Gaussian 16:  ES64L-G16RevB.01 20-Dec-2017

 ---------------------------------------
 #p freq mp2/aug-cc-pvtz density=current
 ---------------------------------------

 -----
 title
 -----
 Symbolic Z-matrix:
 Charge =  0 Multiplicity = 1

                         Standard orientation:
 ---------------------------------------------------------------------
 Center     Atomic      Atomic             Coordinates (Angstroms)
 Number     Number       Type             X           Y           Z
 ---------------------------------------------------------------------
      1          1           0        1.133916   -0.604064    0.000000
      2          8           0        1.315339    0.364467    0.000000
      3          8           0        0.000000    0.917152    0.000000
      4          7           0       -0.992299   -0.043473    0.000000
      5          8           0       -0.588817   -1.168072    0.000000
 ---------------------------------------------------------------------

 SCF Done:  E(RHF) =  -279.506649794     A.U. after   14 cycles
 E2 =    -0.9484994946D+00 EUMP2 =    -0.28045514928816D+03
 E2 =    -0.9484994946D+00 EUMP2 =    -0.28045514928816D+03

 The electronic state is 1-A'.
 Alpha  occ. eigenvalues --  -20.72001 -20.68635 -20.66789 -15.82527  -1.64310
 Alpha  occ. eigenvalues --   -1.50429  -1.29365  -0.96040  -0.83338  -0.75836
 Alpha  occ. eigenvalues --   -0.73940  -0.63692  -0.61842  -0.61773  -0.50372
 Alpha  occ. eigenvalues --   -0.49735
 Alpha virt. eigenvalues --    0.03478   0.06090   0.09520   0.10043   0.12001
 Alpha virt. eigenvalues --    0.12259   0.14925   0.15129   0.17767   0.18082
 Alpha virt. eigenvalues --    0.18992   0.21121   0.21648   0.24271   0.24639

 Mulliken charges:
               1
     1  H    0.281871
     2  O   -0.273722
     3  O    0.037291
     4  N    0.152194
     5  O   -0.197634
 Sum of Mulliken charges =  -0.00000

 Dipole moment (field-independent basis, Debye):
    X=              0.0892    Y=             -1.1071    Z=              0.0000  Tot=              1.1107
 Quadrupole moment (field-independent basis, Debye-Ang):
   XX=            -23.3171   YY=            -22.9364   ZZ=            -21.9393
   XY=             -2.0432   XZ=              0.0000   YZ=              0.0000

  Exact polarizability:  30.943   4.078  29.883   0.000   0.000  17.645
 Approx polarizability:  24.519   0.447  27.697  -0.000  -0.000  15.531

                      1                      2                      3
                     A"                     A'                     A"
 Frequencies --    332.8497               396.5366               524.3557
 Red. masses --      1.5444                 6.9386                 2.9719
 Frc consts  --      0.1008                 0.6428                 0.4814
 IR Inten    --     65.0630                 7.6147                25.3775

                      4                      5                      6
                     A'                     A'                     A'
 Frequencies --    709.8539               833.4918               968.7509
 Red. masses --     13.2515                11.7162                 9.7538
 Frc consts  --      3.9342                 4.7956                 5.3932
 IR Inten    --    218.2709                30.2266                12.7519

                      7                      8                      9
                     A'                     A'                     A'
 Frequencies --   1417.2298              1566.4559              3496.1616
 Red. masses --      1.2776                 7.6238                 1.0640
 Frc consts  --      1.5119                11.0220                 7.6624
 IR Inten    --     78.5934               149.6706                41.1003

 - Thermochemistry -
 -------------------
 Temperature   298.150 Kelvin.  Pressure   1.00000 Atm.
 Atom     1 has atomic number  1 and mass   1.00783

 Molecular mass:    62.99564 amu.
 Principal axes and moments of inertia in atomic units:
                           1         2         3
     Eigenvalues --    84.69643 222.67680 307.37323
           X            0.79735  -0.60352   0.00000
           Y            0.60352   0.79735   0.00000
           Z            0.00000   0.00000   1.00000
 This molecule is an asymmetric top.
 Rotational symmetry number  1.
 Rotational temperatures (Kelvin)      1.02264     0.38897     0.28179
 Rotational constants (GHZ):          21.30835     8.10476     5.87150
 Zero-point vibrational energy      61282.8 (Joules/Mol)
                                   14.64694 (Kcal/Mol)
 Warning -- explicit consideration of   3 degrees of freedom as
           vibrations may cause significant error
 Vibrational temperatures:    478.90   570.53   754.43  1021.32  1199.21
          (Kelvin)           1393.82  2039.08  2253.78  5030.20

 Zero-point correction=                           0.023341 (Hartree/Particle)
 Thermal correction to Energy=                    0.027304
 Thermal correction to Enthalpy=                  0.028248
 Thermal correction to Gibbs Free Energy=        -0.002657
 Sum of electronic and zero-point Energies=           -280.431808
 Sum of electronic and thermal Energies=              -280.427845
 Sum of electronic and thermal Enthalpies=            -280.426901
 Sum of electronic and thermal Free Energies=         -280.457806

                     E (Thermal)             CV                S
                      KCal/Mol        Cal/Mol-Kelvin    Cal/Mol-Kelvin
 Total                   17.134             12.224             65.046
 Electronic               0.000              0.000              0.000
 Translational            0.889              2.981             38.341
 Rotational               0.889              2.981             23.276
 Vibrational             15.356              6.263              3.430
 Vibration     1          0.715              1.610              1.246
 Vibration     2          0.763              1.478              0.975
 Vibration     3          0.879              1.196              0.600

                       ! Non-Optimized Parameters !

 1\1\GINC-N2228\Freq\RMP2-FC\Aug-CC-pVTZ\H1N1O3\CGAVINH\06-Mar-2022\1\\
 #p freq mp2/aug-cc-pvtz density=current\\title\\0,1\H\O,1,r1\O,2,r2,1,
 a1\N,3,r3,2,a2,1,d1,0\O,4,r4,3,a3,2,d2,0\\r1=0.98537664\r2=1.42673666\
 r3=1.38110764\r4=1.19478846\a1=102.18182908\a2=113.13777052\a3=114.333
 92022\d1=0.\d2=0.\\Version=ES64L-G16RevB.01\State=1-A'\HF=-279.5066498
 \MP2=-280.4551493\RMSD=4.366e-09\RMSF=1.486e-03\ZeroPoint=0.0233414\Th
 ermal=0.0273043\Dipole=-0.1147018,0.,-0.4216535\DipoleDeriv=0.3131795,
 0.,0.0436029,0.,0.301696,0.,-0.0109542,0.,0.1969267,-0.5301445,0.,0.26

 Normal termination of Gaussian 16 at Sun Mar  6 19:25:28 2022.
