 Gaussian 16, Revision B.01,
 Gaussian 16:  ES64L-G16RevB.01 20-Dec-2017

 ---------------------------------------
 #p freq mp2/aug-cc-pvtz density=current
 ---------------------------------------

 -----
 title
 -----
 Symbolic Z-matrix:
 Charge =  0 Multiplicity = 1

                         Standard orientation:
 ---------------------------------------------------------------------
 Center     Atomic      Atomic             Coordinates (Angstroms)
 Number     Number       Type             X           Y           Z
 ---------------------------------------------------------------------
      1          1           0        1.110510   -0.599241    0.000000
      2          8           0        1.316309    0.364405    0.000000
      3          8           0       -0.000000    0.914777    0.000000
      4          7           0       -0.990608   -0.047592    0.000000
      5          8           0       -0.588340   -1.162634    0.000000
 ---------------------------------------------------------------------

 SCF Done:  E(RHF) =  -279.507915442     A.U. after   14 cycles
 E2 =    -0.9472029031D+00 EUMP2 =    -0.28045511834500D+03
 E2 =    -0.9472029031D+00 EUMP2 =    -0.28045511834500D+03

 The electronic state is 1-A'.
 Alpha  occ. eigenvalues --  -20.71764 -20.68773 -20.66745 -15.82449  -1.64973
 Alpha  occ. eigenvalues --   -1.50726  -1.29284  -0.95895  -0.83673  -0.76098
 Alpha  occ. eigenvalues --   -0.74150  -0.63746  -0.62051  -0.61885  -0.50297
 Alpha  occ. eigenvalues --   -0.49689
 Alpha virt. eigenvalues --    0.03501   0.06318   0.09515   0.10046   0.11950
 Alpha virt. eigenvalues --    0.12269   0.14932   0.15207   0.17782   0.18027
 Alpha virt. eigenvalues --    0.18980   0.21101   0.21675   0.24344   0.24653

 Mulliken charges:
               1
     1  H    0.277120
     2  O   -0.274860
     3  O    0.035773
     4  N    0.153677
     5  O   -0.191711
 Sum of Mulliken charges =  -0.00000

 Dipole moment (field-independent basis, Debye):
    X=              0.0296    Y=             -1.1363    Z=              0.0000  Tot=              1.1367
 Quadrupole moment (field-independent basis, Debye-Ang):
   XX=            -23.3615   YY=            -22.9291   ZZ=            -21.9147
   XY=             -1.9526   XZ=              0.0000   YZ=              0.0000

  Exact polarizability:  30.849   4.081  29.657   0.000   0.000  17.593
 Approx polarizability:  24.503   0.537  27.417  -0.000  -0.000  15.472

                      1                      2                      3
                     A"                     A'                     A"
 Frequencies --    348.1760               395.9356               514.0249
 Red. masses --      1.6057                 7.0988                 2.7569
 Frc consts  --      0.1147                 0.6557                 0.4292
 IR Inten    --     60.6763                 7.3838                27.5523

                      4                      5                      6
                     A'                     A'                     A'
 Frequencies --    707.6443               836.6645               973.0460
 Red. masses --     13.5422                12.2867                 9.6737
 Frc consts  --      3.9955                 5.0674                 5.3965
 IR Inten    --    221.4307                26.9866                12.0712

                      7                      8                      9
                     A'                     A'                     A'
 Frequencies --   1438.3885              1621.5821              3488.7064
 Red. masses --      1.2419                 8.5436                 1.0637
 Frc consts  --      1.5139                13.2364                 7.6280
 IR Inten    --     81.5540               158.9170                42.4611

 - Thermochemistry -
 -------------------
 Temperature   298.150 Kelvin.  Pressure   1.00000 Atm.
 Atom     1 has atomic number  1 and mass   1.00783

 Molecular mass:    62.99564 amu.
 Principal axes and moments of inertia in atomic units:
                           1         2         3
     Eigenvalues --    83.91938 222.23703 306.15641
           X            0.79881  -0.60159   0.00000
           Y            0.60159   0.79881   0.00000
           Z            0.00000   0.00000   1.00000
 This molecule is an asymmetric top.
 Rotational symmetry number  1.
 Rotational temperatures (Kelvin)      1.03211     0.38974     0.28291
 Rotational constants (GHZ):          21.50566     8.12079     5.89483
 Zero-point vibrational energy      61752.2 (Joules/Mol)
                                   14.75914 (Kcal/Mol)
 Warning -- explicit consideration of   3 degrees of freedom as
           vibrations may cause significant error
 Vibrational temperatures:    500.95   569.66   739.57  1018.14  1203.77
          (Kelvin)           1400.00  2069.52  2333.09  5019.47

 Zero-point correction=                           0.023520 (Hartree/Particle)
 Thermal correction to Energy=                    0.027472
 Thermal correction to Enthalpy=                  0.028416
 Thermal correction to Gibbs Free Energy=        -0.002459
 Sum of electronic and zero-point Energies=           -280.431598
 Sum of electronic and thermal Energies=              -280.427647
 Sum of electronic and thermal Enthalpies=            -280.426703
 Sum of electronic and thermal Free Energies=         -280.457577

                     E (Thermal)             CV                S
                      KCal/Mol        Cal/Mol-Kelvin    Cal/Mol-Kelvin
 Total                   17.239             12.194             64.981
 Electronic               0.000              0.000              0.000
 Translational            0.889              2.981             38.341
 Rotational               0.889              2.981             23.261
 Vibrational             15.461              6.233              3.379
 Vibration     1          0.726              1.579              1.174
 Vibration     2          0.763              1.479              0.978
 Vibration     3          0.869              1.219              0.624

                       ! Non-Optimized Parameters !

 1\1\GINC-N2218\Freq\RMP2-FC\Aug-CC-pVTZ\H1N1O3\CGAVINH\06-Mar-2022\1\\
 #p freq mp2/aug-cc-pvtz density=current\\title\\0,1\H\O,1,r1\O,2,r2,1,
 a1\N,3,r3,2,a2,1,d1,0\O,4,r4,3,a3,2,d2,0\\r1=0.98537664\r2=1.42673666\
 r3=1.38110764\r4=1.18538558\a1=100.6355057\a2=113.13777052\a3=114.3339
 2022\d1=0.\d2=0.\\Version=ES64L-G16RevB.01\State=1-A'\HF=-279.5079154\
 MP2=-280.4551183\RMSD=3.511e-09\RMSF=4.743e-03\ZeroPoint=0.0235202\The
 rmal=0.0274716\Dipole=-0.1047529,0.,-0.434781\DipoleDeriv=0.3166487,0.
 ,0.0376395,0.,0.2981008,0.,-0.0249162,0.,0.198957,-0.5276034,0.,0.2783

 Normal termination of Gaussian 16 at Sun Mar  6 19:21:22 2022.
