 Gaussian 16, Revision B.01,
 Gaussian 16:  ES64L-G16RevB.01 20-Dec-2017

 ---------------------------------------
 #p freq mp2/aug-cc-pvtz density=current
 ---------------------------------------

 -----
 title
 -----
 Symbolic Z-matrix:
 Charge =  0 Multiplicity = 1

                         Standard orientation:
 ---------------------------------------------------------------------
 Center     Atomic      Atomic             Coordinates (Angstroms)
 Number     Number       Type             X           Y           Z
 ---------------------------------------------------------------------
      1          1           0        1.576174    1.675196   -0.000000
      2          8           0        1.473456    0.711681   -0.000000
      3          8           0        0.000000    0.672847    0.000000
      4          7           0       -0.273044   -0.760157    0.000000
      5          8           0       -1.431564   -0.928790    0.000000
 ---------------------------------------------------------------------

 SCF Done:  E(RHF) =  -279.499931677     A.U. after   14 cycles
 E2 =    -0.9466185475D+00 EUMP2 =    -0.28044655022404D+03
 E2 =    -0.9466185475D+00 EUMP2 =    -0.28044655022404D+03

 The electronic state is 1-A'.
 Alpha  occ. eigenvalues --  -20.69195 -20.68462 -20.66161 -15.81320  -1.62352
 Alpha  occ. eigenvalues --   -1.48833  -1.25777  -0.94781  -0.77084  -0.75769
 Alpha  occ. eigenvalues --   -0.71016  -0.67939  -0.61865  -0.58673  -0.48858
 Alpha  occ. eigenvalues --   -0.47291
 Alpha virt. eigenvalues --    0.02959   0.07165   0.08544   0.10162   0.13293
 Alpha virt. eigenvalues --    0.13397   0.14398   0.15445   0.17830   0.19435
 Alpha virt. eigenvalues --    0.19989   0.20612   0.21677   0.22923   0.23722

 Mulliken charges:
               1
     1  H    0.251346
     2  O   -0.203890
     3  O   -0.148077
     4  N    0.293258
     5  O   -0.192637
 Sum of Mulliken charges =  -0.00000

 Dipole moment (field-independent basis, Debye):
    X=              0.5117    Y=              1.3439    Z=             -0.0000  Tot=              1.4381
 Quadrupole moment (field-independent basis, Debye-Ang):
   XX=            -22.3643   YY=            -18.6859   ZZ=            -22.0367
   XY=              3.3150   XZ=              0.0000   YZ=             -0.0000

  Exact polarizability:  34.466   9.501  30.177  -0.000  -0.000  17.991
 Approx polarizability:  29.575   5.090  23.479  -0.000  -0.000  15.553

 ******    1 imaginary frequencies (negative Signs) ******

                      1                      2                      3
                     A"                     A"                     A'
 Frequencies --   -276.4488               234.9596               343.5790
 Red. masses --      1.1417                10.2781                 8.7407
 Frc consts  --      0.0514                 0.3343                 0.6079
 IR Inten    --    124.0624                 0.9336                 2.4682

                      4                      5                      6
                     A'                     A'                     A'
 Frequencies --    446.1052               771.6694               931.0514
 Red. masses --     12.1372                13.2307                14.7582
 Frc consts  --      1.4231                 4.6419                 7.5376
 IR Inten    --    198.7370               161.3499                35.2214

                      7                      8                      9
                     A'                     A'                     A'
 Frequencies --   1349.8919              1676.3790              3780.4887
 Red. masses --      1.1324                13.4099                 1.0677
 Frc consts  --      1.2158                22.2035                 8.9904
 IR Inten    --    151.1593               141.6144                81.5733

 - Thermochemistry -
 -------------------
 Temperature   298.150 Kelvin.  Pressure   1.00000 Atm.
 Atom     1 has atomic number  1 and mass   1.00783

 Molecular mass:    62.99564 amu.
 Principal axes and moments of inertia in atomic units:
                           1         2         3
     Eigenvalues --    33.11966 363.37823 396.49789
           X            0.81706  -0.57655   0.00000
           Y            0.57655   0.81706   0.00000
           Z           -0.00000   0.00000   1.00000
 This molecule is an asymmetric top.
 Rotational symmetry number  1.
 Rotational temperatures (Kelvin)      2.61518     0.23836     0.21845
 Rotational constants (GHZ):          54.49154     4.96656     4.55170
    1 imaginary frequencies ignored.
 Zero-point vibrational energy      57026.7 (Joules/Mol)
                                   13.62971 (Kcal/Mol)
 Warning -- explicit consideration of   3 degrees of freedom as
           vibrations may cause significant error
 Vibrational temperatures:    338.05   494.33   641.85  1110.26  1339.58
          (Kelvin)           1942.19  2411.94  5439.28

 Zero-point correction=                           0.021720 (Hartree/Particle)
 Thermal correction to Energy=                    0.025843
 Thermal correction to Enthalpy=                  0.026787
 Thermal correction to Gibbs Free Energy=        -0.004405
 Sum of electronic and zero-point Energies=           -280.424830
 Sum of electronic and thermal Energies=              -280.420707
 Sum of electronic and thermal Enthalpies=            -280.419763
 Sum of electronic and thermal Free Energies=         -280.450956

                     E (Thermal)             CV                S
                      KCal/Mol        Cal/Mol-Kelvin    Cal/Mol-Kelvin
 Total                   16.217             12.030             65.650
 Electronic               0.000              0.000              0.000
 Translational            0.889              2.981             38.341
 Rotational               0.889              2.981             23.083
 Vibrational             14.439              6.068              4.227
 Vibration     1          0.655              1.787              1.841
 Vibration     2          0.722              1.588              1.195
 Vibration     3          0.805              1.369              0.808

                       ! Non-Optimized Parameters !

 1\1\GINC-N2126\Freq\RMP2-FC\Aug-CC-pVTZ\H1N1O3\CGAVINH\21-Feb-2022\1\\
 #p freq mp2/aug-cc-pvtz density=current\\title\\0,1\H\O,1,r1\O,2,r2,1,
 a1\N,3,r3,2,a2,1,d1,0\O,4,r4,3,a3,2,d2,0\\r1=0.96897556\r2=1.47396719\
 r3=1.45878406\r4=1.17072885\a1=97.59494903\a2=102.29752444\a3=109.0695
 5123\d1=180.\d2=180.\\Version=ES64L-G16RevB.01\State=1-A'\HF=-279.4999
 317\MP2=-280.4465502\RMSD=3.984e-09\RMSF=3.262e-03\ZeroPoint=0.0217203
 \Thermal=0.0258429\Dipole=-0.144139,0.,-0.5471102\DipoleDeriv=0.265995
 2,0.,0.0471873,0.,0.354738,0.,0.0847834,0.,0.2730603,-0.3278362,0.,-0.

 Normal termination of Gaussian 16 at Mon Feb 21 20:11:41 2022.
