 Gaussian 16, Revision B.01,
 Gaussian 16:  ES64L-G16RevB.01 20-Dec-2017

 ---------------------------------------
 #p freq mp2/aug-cc-pvtz density=current
 ---------------------------------------

 -----
 title
 -----
 Symbolic Z-matrix:
 Charge =  0 Multiplicity = 1

                         Standard orientation:
 ---------------------------------------------------------------------
 Center     Atomic      Atomic             Coordinates (Angstroms)
 Number     Number       Type             X           Y           Z
 ---------------------------------------------------------------------
      1          1           0        1.545805    1.692589    0.000000
      2          8           0        1.453893    0.727982    0.000000
      3          8           0        0.000000    0.673349    0.000000
      4          7           0       -0.256963   -0.762625   -0.000000
      5          8           0       -1.422276   -0.945609   -0.000000
 ---------------------------------------------------------------------

 SCF Done:  E(RHF) =  -279.500058362     A.U. after   14 cycles
 E2 =    -0.9465715324D+00 EUMP2 =    -0.28044662989401D+03
 E2 =    -0.9465715324D+00 EUMP2 =    -0.28044662989401D+03

 The electronic state is 1-A'.
 Alpha  occ. eigenvalues --  -20.69294 -20.68394 -20.66110 -15.81412  -1.61702
 Alpha  occ. eigenvalues --   -1.49552  -1.25529  -0.94929  -0.77182  -0.75686
 Alpha  occ. eigenvalues --   -0.71012  -0.67826  -0.61859  -0.58999  -0.48594
 Alpha  occ. eigenvalues --   -0.47421
 Alpha virt. eigenvalues --    0.02939   0.06895   0.08608   0.10172   0.13383
 Alpha virt. eigenvalues --    0.13412   0.14389   0.15432   0.17811   0.19427
 Alpha virt. eigenvalues --    0.19949   0.20635   0.22051   0.23469   0.23732

 Mulliken charges:
               1
     1  H    0.250562
     2  O   -0.200882
     3  O   -0.145227
     4  N    0.290738
     5  O   -0.195192
 Sum of Mulliken charges =  -0.00000

 Dipole moment (field-independent basis, Debye):
    X=              0.5410    Y=              1.3995    Z=              0.0000  Tot=              1.5005
 Quadrupole moment (field-independent basis, Debye-Ang):
   XX=            -22.5146   YY=            -18.6157   ZZ=            -22.0251
   XY=              3.2266   XZ=             -0.0000   YZ=              0.0000

  Exact polarizability:  34.094   9.568  30.372   0.000   0.000  17.944
 Approx polarizability:  29.205   5.177  23.597   0.000   0.000  15.561

 ******    1 imaginary frequencies (negative Signs) ******

                      1                      2                      3
                     A"                     A"                     A'
 Frequencies --   -270.7371               255.8372               347.6073
 Red. masses --      1.1317                11.1810                 8.5109
 Frc consts  --      0.0489                 0.4312                 0.6059
 IR Inten    --    125.1129                 0.4117                 7.3336

                      4                      5                      6
                     A'                     A'                     A'
 Frequencies --    447.0878               785.4777               966.2056
 Red. masses --     12.4459                13.1099                15.3946
 Frc consts  --      1.4658                 4.7656                 8.4675
 IR Inten    --    197.5883               170.6728                23.7056

                      7                      8                      9
                     A'                     A'                     A'
 Frequencies --   1370.1721              1621.7016              3778.7833
 Red. masses --      1.1401                12.2632                 1.0675
 Frc consts  --      1.2610                19.0019                 8.9814
 IR Inten    --    158.7316               117.7046                83.2119

 - Thermochemistry -
 -------------------
 Temperature   298.150 Kelvin.  Pressure   1.00000 Atm.
 Atom     1 has atomic number  1 and mass   1.00783

 Molecular mass:    62.99564 amu.
 Principal axes and moments of inertia in atomic units:
                           1         2         3
     Eigenvalues --    32.87629 361.64991 394.52620
           X            0.80900  -0.58781   0.00000
           Y            0.58781   0.80900   0.00000
           Z           -0.00000   0.00000   1.00000
 This molecule is an asymmetric top.
 Rotational symmetry number  1.
 Rotational temperatures (Kelvin)      2.63454     0.23950     0.21954
 Rotational constants (GHZ):          54.89492     4.99030     4.57445
    1 imaginary frequencies ignored.
 Zero-point vibrational energy      57258.5 (Joules/Mol)
                                   13.68511 (Kcal/Mol)
 Warning -- explicit consideration of   3 degrees of freedom as
           vibrations may cause significant error
 Vibrational temperatures:    368.09   500.13   643.26  1130.13  1390.15
          (Kelvin)           1971.37  2333.27  5436.83

 Zero-point correction=                           0.021809 (Hartree/Particle)
 Thermal correction to Energy=                    0.025886
 Thermal correction to Enthalpy=                  0.026830
 Thermal correction to Gibbs Free Energy=        -0.004259
 Sum of electronic and zero-point Energies=           -280.424821
 Sum of electronic and thermal Energies=              -280.420744
 Sum of electronic and thermal Enthalpies=            -280.419800
 Sum of electronic and thermal Free Energies=         -280.450889

                     E (Thermal)             CV                S
                      KCal/Mol        Cal/Mol-Kelvin    Cal/Mol-Kelvin
 Total                   16.244             11.918             65.432
 Electronic               0.000              0.000              0.000
 Translational            0.889              2.981             38.341
 Rotational               0.889              2.981             23.066
 Vibrational             14.466              5.957              4.026
 Vibration     1          0.666              1.753              1.690
 Vibration     2          0.725              1.580              1.177
 Vibration     3          0.806              1.367              0.805

                       ! Non-Optimized Parameters !

 1\1\GINC-N2124\Freq\RMP2-FC\Aug-CC-pVTZ\H1N1O3\CGAVINH\21-Feb-2022\1\\
 #p freq mp2/aug-cc-pvtz density=current\\title\\0,1\H\O,1,r1\O,2,r2,1,
 a1\N,3,r3,2,a2,1,d1,0\O,4,r4,3,a3,2,d2,0\\r1=0.96897556\r2=1.45491931\
 r3=1.45878406\r4=1.17959214\a1=97.59494903\a2=102.29752444\a3=109.0695
 5123\d1=180.\d2=180.\\Version=ES64L-G16RevB.01\State=1-A'\HF=-279.5000
 584\MP2=-280.4466299\RMSD=4.033e-09\RMSF=4.455e-03\ZeroPoint=0.0218086
 \Thermal=0.0258858\Dipole=-0.1596607,0.,-0.5683312\DipoleDeriv=0.26639
 67,0.,0.0484322,0.,0.3558439,0.,0.0827204,0.,0.2766145,-0.3297724,0.,-

 Normal termination of Gaussian 16 at Mon Feb 21 20:28:58 2022.
