 Gaussian 16, Revision B.01,
 Gaussian 16:  ES64L-G16RevB.01 20-Dec-2017

 ---------------------------------------
 #p freq mp2/aug-cc-pvtz density=current
 ---------------------------------------

 -----
 title
 -----
 Symbolic Z-matrix:
 Charge =  0 Multiplicity = 1

                         Standard orientation:
 ---------------------------------------------------------------------
 Center     Atomic      Atomic             Coordinates (Angstroms)
 Number     Number       Type             X           Y           Z
 ---------------------------------------------------------------------
      1          1           0        2.248315    0.433680   -0.028952
      2          8           0        1.597721   -0.284371   -0.022386
      3          8           0        0.400648    0.541187    0.025193
      4          7           0       -0.664084   -0.455914    0.038883
      5          8           0       -1.698335    0.087899   -0.033211
 ---------------------------------------------------------------------

 SCF Done:  E(RHF) =  -279.501552707     A.U. after   16 cycles
 E2 =    -0.9449775113D+00 EUMP2 =    -0.28044653021832D+03
 E2 =    -0.9449775113D+00 EUMP2 =    -0.28044653021832D+03

 The electronic state is 1-A.
 Alpha  occ. eigenvalues --  -20.69072 -20.68440 -20.66000 -15.81276  -1.62405
 Alpha  occ. eigenvalues --   -1.49571  -1.25439  -0.94806  -0.77275  -0.75915
 Alpha  occ. eigenvalues --   -0.71213  -0.67901  -0.62057  -0.58935  -0.48522
 Alpha  occ. eigenvalues --   -0.47248
 Alpha virt. eigenvalues --    0.02963   0.07153   0.08603   0.10172   0.13218
 Alpha virt. eigenvalues --    0.13560   0.14410   0.15455   0.17804   0.19410
 Alpha virt. eigenvalues --    0.19949   0.20666   0.22093   0.23437   0.23867

 Mulliken charges:
               1
     1  H    0.250373
     2  O   -0.201546
     3  O   -0.147626
     4  N    0.291617
     5  O   -0.192818
 Sum of Mulliken charges =  -0.00000

 Dipole moment (field-independent basis, Debye):
    X=              1.2152    Y=              0.7903    Z=             -0.0106  Tot=              1.4497
 Quadrupole moment (field-independent basis, Debye-Ang):
   XX=            -17.9834   YY=            -23.0931   ZZ=            -22.0161
   XY=              2.7856   XZ=             -0.1559   YZ=              0.0608

  Exact polarizability:  41.690   0.974  22.515   0.092  -0.064  17.953
 Approx polarizability:  31.922  -1.128  20.573   0.187  -0.013  15.552

 ******    1 imaginary frequencies (negative Signs) ******

                      1                      2                      3
                      A                      A                      A
 Frequencies --   -269.8283               225.9732               341.9785
 Red. masses --      1.1384                10.5254                 8.6453
 Frc consts  --      0.0488                 0.3167                 0.5957
 IR Inten    --    124.7180                 1.7192                 4.1613

                      4                      5                      6
                      A                      A                      A
 Frequencies --    451.9166               785.7755               967.2189
 Red. masses --     12.3024                12.9096                15.3948
 Frc consts  --      1.4803                 4.6963                 8.4854
 IR Inten    --    199.1743               170.3230                22.4176

                      7                      8                      9
                      A                      A                      A
 Frequencies --   1371.1066              1676.9829              3778.6874
 Red. masses --      1.1334                13.2094                 1.0675
 Frc consts  --      1.2554                21.8872                 8.9809
 IR Inten    --    152.6840               140.2719                82.6165

 - Thermochemistry -
 -------------------
 Temperature   298.150 Kelvin.  Pressure   1.00000 Atm.
 Atom     1 has atomic number  1 and mass   1.00783

 Molecular mass:    62.99564 amu.
 Principal axes and moments of inertia in atomic units:
                           1         2         3
     Eigenvalues --    33.01865 359.93358 392.53977
           X            0.99994   0.01070  -0.00066
           Y           -0.01070   0.99994  -0.00144
           Z            0.00065   0.00145   1.00000
 This molecule is an asymmetric top.
 Rotational symmetry number  1.
 Rotational temperatures (Kelvin)      2.62318     0.24064     0.22065
 Rotational constants (GHZ):          54.65824     5.01410     4.59760
    1 imaginary frequencies ignored.
 Zero-point vibrational energy      57418.6 (Joules/Mol)
                                   13.72337 (Kcal/Mol)
 Warning -- explicit consideration of   3 degrees of freedom as
           vibrations may cause significant error
 Vibrational temperatures:    325.13   492.03   650.21  1130.56  1391.61
          (Kelvin)           1972.72  2412.80  5436.69

 Zero-point correction=                           0.021870 (Hartree/Particle)
 Thermal correction to Energy=                    0.025991
 Thermal correction to Enthalpy=                  0.026935
 Thermal correction to Gibbs Free Energy=        -0.004260
 Sum of electronic and zero-point Energies=           -280.424661
 Sum of electronic and thermal Energies=              -280.420539
 Sum of electronic and thermal Enthalpies=            -280.419595
 Sum of electronic and thermal Free Energies=         -280.450791

                     E (Thermal)             CV                S
                      KCal/Mol        Cal/Mol-Kelvin    Cal/Mol-Kelvin
 Total                   16.309             11.957             65.656
 Electronic               0.000              0.000              0.000
 Translational            0.889              2.981             38.341
 Rotational               0.889              2.981             23.060
 Vibrational             14.532              5.995              4.255
 Vibration     1          0.650              1.801              1.911
 Vibration     2          0.721              1.592              1.203
 Vibration     3          0.811              1.357              0.790

                       ! Non-Optimized Parameters !

 1\1\GINC-N2128\Freq\RMP2-FC\Aug-CC-pVTZ\H1N1O3\CGAVINH\21-Feb-2022\1\\
 #p freq mp2/aug-cc-pvtz density=current\\title\\0,1\H\O,1,r1\O,2,r2,1,
 a1\N,3,r3,2,a2,1,d1,0\O,4,r4,3,a3,2,d2,0\\r1=0.96897556\r2=1.45491931\
 r3=1.45878406\r4=1.17072885\a1=97.59494903\a2=102.29752444\a3=109.0695
 5123\d1=180.\d2=185.72312793\\Version=ES64L-G16RevB.01\State=1-A\HF=-2
 79.5015527\MP2=-280.4465302\RMSD=4.048e-09\RMSF=9.063e-04\ZeroPoint=0.
 0218696\Thermal=0.0259908\Dipole=-0.145459,-0.0042283,-0.5514623\Dipol
 eDeriv=0.2663717,-0.0008547,0.0481586,0.0019883,0.3555768,0.0025108,0.

 Normal termination of Gaussian 16 at Mon Feb 21 21:14:42 2022.
