 Gaussian 16, Revision B.01,
 Gaussian 16:  ES64L-G16RevB.01 20-Dec-2017

 ---------------------------------------
 #p freq mp2/aug-cc-pvtz density=current
 ---------------------------------------

 -----
 title
 -----
 Symbolic Z-matrix:
 Charge =  0 Multiplicity = 1

                         Standard orientation:
 ---------------------------------------------------------------------
 Center     Atomic      Atomic             Coordinates (Angstroms)
 Number     Number       Type             X           Y           Z
 ---------------------------------------------------------------------
      1          1           0        1.102523   -0.604327   -0.000000
      2          8           0        1.313393    0.358223   -0.000000
      3          8           0       -0.000000    0.915517    0.000000
      4          7           0       -0.995661   -0.041623    0.000000
      5          8           0       -0.580004   -1.161779    0.000000
 ---------------------------------------------------------------------

 SCF Done:  E(RHF) =  -279.506316608     A.U. after   14 cycles
 E2 =    -0.9488563187D+00 EUMP2 =    -0.28045517292694D+03
 E2 =    -0.9488563187D+00 EUMP2 =    -0.28045517292694D+03

 The electronic state is 1-A'.
 Alpha  occ. eigenvalues --  -20.71896 -20.68684 -20.66774 -15.82655  -1.64534
 Alpha  occ. eigenvalues --   -1.50399  -1.29342  -0.96009  -0.83581  -0.75910
 Alpha  occ. eigenvalues --   -0.74012  -0.63619  -0.61799  -0.61783  -0.50611
 Alpha  occ. eigenvalues --   -0.49705
 Alpha virt. eigenvalues --    0.03514   0.05977   0.09512   0.10025   0.11970
 Alpha virt. eigenvalues --    0.12256   0.14958   0.15219   0.17740   0.18032
 Alpha virt. eigenvalues --    0.18994   0.21094   0.21668   0.24246   0.24636

 Mulliken charges:
               1
     1  H    0.277433
     2  O   -0.274244
     3  O    0.038020
     4  N    0.153804
     5  O   -0.195013
 Sum of Mulliken charges =  -0.00000

 Dipole moment (field-independent basis, Debye):
    X=              0.0320    Y=             -1.0930    Z=             -0.0000  Tot=              1.0935
 Quadrupole moment (field-independent basis, Debye-Ang):
   XX=            -23.3610   YY=            -22.9359   ZZ=            -21.9303
   XY=             -1.9817   XZ=              0.0000   YZ=              0.0000

  Exact polarizability:  30.897   4.079  29.750  -0.000   0.000  17.602
 Approx polarizability:  24.604   0.433  27.553  -0.000   0.000  15.507

                      1                      2                      3
                     A"                     A'                     A"
 Frequencies --    355.1841               409.2510               528.3644
 Red. masses --      1.5485                 7.0114                 2.9363
 Frc consts  --      0.1151                 0.6919                 0.4830
 IR Inten    --     62.8909                 7.8939                25.2751

                      4                      5                      6
                     A'                     A'                     A'
 Frequencies --    717.1003               835.1520               973.3631
 Red. masses --     13.4656                12.3648                 9.6067
 Frc consts  --      4.0798                 5.0812                 5.3626
 IR Inten    --    218.4404                28.0190                12.1452

                      7                      8                      9
                     A'                     A'                     A'
 Frequencies --   1429.4284              1571.3928              3485.7367
 Red. masses --      1.3079                 6.4449                 1.0635
 Frc consts  --      1.5745                 9.3764                 7.6135
 IR Inten    --     80.7784               148.6340                44.1416

 - Thermochemistry -
 -------------------
 Temperature   298.150 Kelvin.  Pressure   1.00000 Atm.
 Atom     1 has atomic number  1 and mass   1.00783

 Molecular mass:    62.99564 amu.
 Principal axes and moments of inertia in atomic units:
                           1         2         3
     Eigenvalues --    84.86916 220.43587 305.30503
           X            0.79996  -0.60005   0.00000
           Y            0.60005   0.79996   0.00000
           Z           -0.00000   0.00000   1.00000
 This molecule is an asymmetric top.
 Rotational symmetry number  1.
 Rotational temperatures (Kelvin)      1.02056     0.39292     0.28370
 Rotational constants (GHZ):          21.26498     8.18715     5.91127
 Zero-point vibrational energy      61637.4 (Joules/Mol)
                                   14.73170 (Kcal/Mol)
 Warning -- explicit consideration of   3 degrees of freedom as
           vibrations may cause significant error
 Vibrational temperatures:    511.03   588.82   760.20  1031.75  1201.60
          (Kelvin)           1400.45  2056.63  2260.88  5015.20

 Zero-point correction=                           0.023476 (Hartree/Particle)
 Thermal correction to Energy=                    0.027395
 Thermal correction to Enthalpy=                  0.028339
 Thermal correction to Gibbs Free Energy=        -0.002478
 Sum of electronic and zero-point Energies=           -280.431696
 Sum of electronic and thermal Energies=              -280.427778
 Sum of electronic and thermal Enthalpies=            -280.426834
 Sum of electronic and thermal Free Energies=         -280.457651

                     E (Thermal)             CV                S
                      KCal/Mol        Cal/Mol-Kelvin    Cal/Mol-Kelvin
 Total                   17.191             12.116             64.861
 Electronic               0.000              0.000              0.000
 Translational            0.889              2.981             38.341
 Rotational               0.889              2.981             23.261
 Vibrational             15.413              6.155              3.259
 Vibration     1          0.731              1.565              1.143
 Vibration     2          0.774              1.450              0.929
 Vibration     3          0.883              1.187              0.591

                       ! Non-Optimized Parameters !

 1\1\GINC-N2199\Freq\RMP2-FC\Aug-CC-pVTZ\H1N1O3\CGAVINH\06-Mar-2022\1\\
 #p freq mp2/aug-cc-pvtz density=current\\title\\0,1\H\O,1,r1\O,2,r2,1,
 a1\N,3,r3,2,a2,1,d1,0\O,4,r4,3,a3,2,d2,0\\r1=0.98537664\r2=1.42673666\
 r3=1.38110764\r4=1.19478846\a1=100.6355057\a2=113.13777052\a3=113.5114
 9425\d1=0.\d2=0.\\Version=ES64L-G16RevB.01\State=1-A'\HF=-279.5063166\
 MP2=-280.4551729\RMSD=4.503e-09\RMSF=1.799e-03\ZeroPoint=0.0234765\The
 rmal=0.0273949\Dipole=-0.1043102,0.,-0.4173588\DipoleDeriv=0.3189252,0
 .,0.0367184,0.,0.2977504,0.,-0.0266949,0.,0.2031089,-0.5267945,0.,0.28

 Normal termination of Gaussian 16 at Sun Mar  6 19:47:08 2022.
