 Gaussian 16, Revision B.01,
 Gaussian 16:  ES64L-G16RevB.01 20-Dec-2017

 ---------------------------------------
 #p freq mp2/aug-cc-pvtz density=current
 ---------------------------------------

 -----
 title
 -----
 Symbolic Z-matrix:
 Charge =  0 Multiplicity = 1

                         Standard orientation:
 ---------------------------------------------------------------------
 Center     Atomic      Atomic             Coordinates (Angstroms)
 Number     Number       Type             X           Y           Z
 ---------------------------------------------------------------------
      1          1           0        1.131736   -0.588054    0.000000
      2          8           0        1.323934    0.378397    0.000000
      3          8           0       -0.000000    0.910164    0.000000
      4          7           0       -0.995029   -0.047633    0.000000
      5          8           0       -0.594750   -1.173375    0.000000
 ---------------------------------------------------------------------

 SCF Done:  E(RHF) =  -279.506551320     A.U. after   14 cycles
 E2 =    -0.9486053392D+00 EUMP2 =    -0.28045515665879D+03
 E2 =    -0.9486053392D+00 EUMP2 =    -0.28045515665879D+03

 The electronic state is 1-A'.
 Alpha  occ. eigenvalues --  -20.71850 -20.68664 -20.66971 -15.82606  -1.64282
 Alpha  occ. eigenvalues --   -1.50529  -1.29383  -0.96018  -0.83266  -0.75838
 Alpha  occ. eigenvalues --   -0.73915  -0.63901  -0.61876  -0.61760  -0.50400
 Alpha  occ. eigenvalues --   -0.49717
 Alpha virt. eigenvalues --    0.03485   0.06072   0.09517   0.10076   0.11973
 Alpha virt. eigenvalues --    0.12248   0.14879   0.15149   0.17762   0.18062
 Alpha virt. eigenvalues --    0.18992   0.21104   0.21668   0.24111   0.24648

 Mulliken charges:
               1
     1  H    0.280683
     2  O   -0.272766
     3  O    0.038175
     4  N    0.152060
     5  O   -0.198153
 Sum of Mulliken charges =  -0.00000

 Dipole moment (field-independent basis, Debye):
    X=              0.0856    Y=             -1.1040    Z=              0.0000  Tot=              1.1073
 Quadrupole moment (field-independent basis, Debye-Ang):
   XX=            -23.2908   YY=            -23.0155   ZZ=            -21.9370
   XY=             -1.9979   XZ=              0.0000   YZ=              0.0000

  Exact polarizability:  31.130   4.247  29.931   0.000   0.000  17.639
 Approx polarizability:  24.691   0.614  27.649  -0.000  -0.000  15.526

                      1                      2                      3
                     A"                     A'                     A"
 Frequencies --    354.2620               374.8994               518.6325
 Red. masses --      1.5485                 7.0106                 2.9508
 Frc consts  --      0.1145                 0.5805                 0.4676
 IR Inten    --     63.4978                 7.7261                25.7304

                      4                      5                      6
                     A'                     A'                     A'
 Frequencies --    713.1143               835.3807               971.2127
 Red. masses --     13.2392                12.2332                 9.5909
 Frc consts  --      3.9667                 5.0299                 5.3302
 IR Inten    --    220.5299                28.7478                12.9675

                      7                      8                      9
                     A'                     A'                     A'
 Frequencies --   1431.1238              1566.5208              3494.9111
 Red. masses --      1.2885                 7.0698                 1.0639
 Frc consts  --      1.5548                10.2219                 7.6566
 IR Inten    --     78.2243               152.7475                39.3359

 - Thermochemistry -
 -------------------
 Temperature   298.150 Kelvin.  Pressure   1.00000 Atm.
 Atom     1 has atomic number  1 and mass   1.00783

 Molecular mass:    62.99564 amu.
 Principal axes and moments of inertia in atomic units:
                           1         2         3
     Eigenvalues --    83.72728 226.11902 309.84630
           X            0.79786  -0.60285   0.00000
           Y            0.60285   0.79786   0.00000
           Z            0.00000   0.00000   1.00000
 This molecule is an asymmetric top.
 Rotational symmetry number  1.
 Rotational temperatures (Kelvin)      1.03448     0.38305     0.27954
 Rotational constants (GHZ):          21.55500     7.98138     5.82463
 Zero-point vibrational energy      61368.8 (Joules/Mol)
                                   14.66749 (Kcal/Mol)
 Warning -- explicit consideration of   3 degrees of freedom as
           vibrations may cause significant error
 Vibrational temperatures:    509.70   539.40   746.20  1026.01  1201.93
          (Kelvin)           1397.36  2059.07  2253.87  5028.40

 Zero-point correction=                           0.023374 (Hartree/Particle)
 Thermal correction to Energy=                    0.027336
 Thermal correction to Enthalpy=                  0.028280
 Thermal correction to Gibbs Free Energy=        -0.002627
 Sum of electronic and zero-point Energies=           -280.431783
 Sum of electronic and thermal Energies=              -280.427820
 Sum of electronic and thermal Enthalpies=            -280.426876
 Sum of electronic and thermal Free Energies=         -280.457783

                     E (Thermal)             CV                S
                      KCal/Mol        Cal/Mol-Kelvin    Cal/Mol-Kelvin
 Total                   17.154             12.223             65.049
 Electronic               0.000              0.000              0.000
 Translational            0.889              2.981             38.341
 Rotational               0.889              2.981             23.288
 Vibrational             15.376              6.262              3.421
 Vibration     1          0.730              1.567              1.147
 Vibration     2          0.746              1.524              1.060
 Vibration     3          0.874              1.209              0.613

                       ! Non-Optimized Parameters !

 1\1\GINC-N2228\Freq\RMP2-FC\Aug-CC-pVTZ\H1N1O3\CGAVINH\06-Mar-2022\1\\
 #p freq mp2/aug-cc-pvtz density=current\\title\\0,1\H\O,1,r1\O,2,r2,1,
 a1\N,3,r3,2,a2,1,d1,0\O,4,r4,3,a3,2,d2,0\\r1=0.98537664\r2=1.42673666\
 r3=1.38110764\r4=1.19478846\a1=100.6355057\a2=114.20909127\a3=114.3339
 2022\d1=0.\d2=0.\\Version=ES64L-G16RevB.01\State=1-A'\HF=-279.5065513\
 MP2=-280.4551567\RMSD=4.124e-09\RMSF=1.700e-03\ZeroPoint=0.0233741\The
 rmal=0.0273363\Dipole=-0.1177552,0.,-0.4194205\DipoleDeriv=0.3140229,0
 .,0.0418376,0.,0.2998466,0.,-0.0175188,0.,0.1920488,-0.5376937,0.,0.27

 Normal termination of Gaussian 16 at Sun Mar  6 19:34:12 2022.
