 Gaussian 16, Revision B.01,
 Gaussian 16:  ES64L-G16RevB.01 20-Dec-2017

 ---------------------------------------
 #p freq mp2/aug-cc-pvtz density=current
 ---------------------------------------

 -----
 title
 -----
 Symbolic Z-matrix:
 Charge =  0 Multiplicity = 1

                         Standard orientation:
 ---------------------------------------------------------------------
 Center     Atomic      Atomic             Coordinates (Angstroms)
 Number     Number       Type             X           Y           Z
 ---------------------------------------------------------------------
      1          1           0        1.529309    1.709450   -0.000000
      2          8           0        1.452834    0.743497   -0.000000
      3          8           0        0.000000    0.665622   -0.000000
      4          7           0       -0.259779   -0.769845    0.000000
      5          8           0       -1.416690   -0.949185    0.000000
 ---------------------------------------------------------------------

 SCF Done:  E(RHF) =  -279.501717244     A.U. after   14 cycles
 E2 =    -0.9449716870D+00 EUMP2 =    -0.28044668893066D+03
 E2 =    -0.9449716870D+00 EUMP2 =    -0.28044668893066D+03

 The electronic state is 1-A'.
 Alpha  occ. eigenvalues --  -20.69058 -20.68453 -20.66033 -15.81315  -1.62400
 Alpha  occ. eigenvalues --   -1.49545  -1.25490  -0.94787  -0.77200  -0.75959
 Alpha  occ. eigenvalues --   -0.71164  -0.68091  -0.62073  -0.58866  -0.48514
 Alpha  occ. eigenvalues --   -0.47229
 Alpha virt. eigenvalues --    0.02963   0.07155   0.08596   0.10199   0.13384
 Alpha virt. eigenvalues --    0.13385   0.14395   0.15418   0.17830   0.19428
 Alpha virt. eigenvalues --    0.19991   0.20622   0.22070   0.23529   0.23729

 Mulliken charges:
               1
     1  H    0.251660
     2  O   -0.203709
     3  O   -0.145638
     4  N    0.289964
     5  O   -0.192278
 Sum of Mulliken charges =  -0.00000

 Dipole moment (field-independent basis, Debye):
    X=              0.4822    Y=              1.3685    Z=             -0.0000  Tot=              1.4510
 Quadrupole moment (field-independent basis, Debye-Ang):
   XX=            -22.5772   YY=            -18.5115   ZZ=            -22.0124
   XY=              3.2194   XZ=             -0.0000   YZ=              0.0000

  Exact polarizability:  33.987   9.610  30.457  -0.000  -0.000  17.940
 Approx polarizability:  28.995   5.235  23.587  -0.000  -0.000  15.526

 ******    1 imaginary frequencies (negative Signs) ******

                      1                      2                      3
                     A"                     A"                     A'
 Frequencies --   -275.9165               231.2581               338.0916
 Red. masses --      1.1399                10.5811                 8.7417
 Frc consts  --      0.0511                 0.3334                 0.5887
 IR Inten    --    124.5976                 0.7832                 1.8963

                      4                      5                      6
                     A'                     A'                     A'
 Frequencies --    443.8667               784.7774               967.6011
 Red. masses --     11.9951                12.8016                15.3067
 Frc consts  --      1.3924                 4.6452                 8.4435
 IR Inten    --    202.1975               171.9808                23.6650

                      7                      8                      9
                     A'                     A'                     A'
 Frequencies --   1371.5310              1676.7556              3778.7070
 Red. masses --      1.1350                13.2359                 1.0676
 Frc consts  --      1.2579                21.9252                 8.9813
 IR Inten    --    154.3026               140.2157                84.4311

 - Thermochemistry -
 -------------------
 Temperature   298.150 Kelvin.  Pressure   1.00000 Atm.
 Atom     1 has atomic number  1 and mass   1.00783

 Molecular mass:    62.99564 amu.
 Principal axes and moments of inertia in atomic units:
                           1         2         3
     Eigenvalues --    32.31486 362.87932 395.19418
           X            0.80563  -0.59243   0.00000
           Y            0.59243   0.80563   0.00000
           Z            0.00000  -0.00000   1.00000
 This molecule is an asymmetric top.
 Rotational symmetry number  1.
 Rotational temperatures (Kelvin)      2.68031     0.23869     0.21917
 Rotational constants (GHZ):          55.84865     4.97339     4.56672
    1 imaginary frequencies ignored.
 Zero-point vibrational energy      57376.4 (Joules/Mol)
                                   13.71329 (Kcal/Mol)
 Warning -- explicit consideration of   3 degrees of freedom as
           vibrations may cause significant error
 Vibrational temperatures:    332.73   486.44   638.63  1129.12  1392.16
          (Kelvin)           1973.33  2412.48  5436.72

 Zero-point correction=                           0.021854 (Hartree/Particle)
 Thermal correction to Energy=                    0.025979
 Thermal correction to Enthalpy=                  0.026923
 Thermal correction to Gibbs Free Energy=        -0.004270
 Sum of electronic and zero-point Energies=           -280.424835
 Sum of electronic and thermal Energies=              -280.420710
 Sum of electronic and thermal Enthalpies=            -280.419766
 Sum of electronic and thermal Free Energies=         -280.450959

                     E (Thermal)             CV                S
                      KCal/Mol        Cal/Mol-Kelvin    Cal/Mol-Kelvin
 Total                   16.302             11.975             65.651
 Electronic               0.000              0.000              0.000
 Translational            0.889              2.981             38.341
 Rotational               0.889              2.981             23.054
 Vibrational             14.524              6.014              4.257
 Vibration     1          0.653              1.793              1.869
 Vibration     2          0.718              1.599              1.221
 Vibration     3          0.803              1.374              0.815

                       ! Non-Optimized Parameters !

 1\1\GINC-N2228\Freq\RMP2-FC\Aug-CC-pVTZ\H1N1O3\CGAVINH\21-Feb-2022\1\\
 #p freq mp2/aug-cc-pvtz density=current\\title\\0,1\H\O,1,r1\O,2,r2,1,
 a1\N,3,r3,2,a2,1,d1,0\O,4,r4,3,a3,2,d2,0\\r1=0.96897556\r2=1.45491931\
 r3=1.45878406\r4=1.17072885\a1=97.59494903\a2=103.32615341\a3=109.0695
 5123\d1=180.\d2=180.\\Version=ES64L-G16RevB.01\State=1-A'\HF=-279.5017
 172\MP2=-280.4466889\RMSD=3.800e-09\RMSF=1.105e-03\ZeroPoint=0.0218535
 \Thermal=0.0259785\Dipole=-0.1466157,0.,-0.5517098\DipoleDeriv=0.26504
 63,0.,0.047006,0.,0.3556174,0.,0.0846704,0.,0.2778915,-0.3357437,0.,-0

 Normal termination of Gaussian 16 at Mon Feb 21 20:42:42 2022.
