 Gaussian 16, Revision B.01,
 Gaussian 16:  ES64L-G16RevB.01 20-Dec-2017

 ---------------------------------------
 #p freq mp2/aug-cc-pvtz density=current
 ---------------------------------------

 -----
 title
 -----
 Symbolic Z-matrix:
 Charge =  0 Multiplicity = 1

                         Standard orientation:
 ---------------------------------------------------------------------
 Center     Atomic      Atomic             Coordinates (Angstroms)
 Number     Number       Type             X           Y           Z
 ---------------------------------------------------------------------
      1          1           0        1.550998    1.677526   -0.000000
      2          8           0        1.454154    0.713402   -0.000000
      3          8           0       -0.000000    0.666206   -0.000000
      4          7           0       -0.261631   -0.753924    0.000000
      5          8           0       -1.419101   -0.929616    0.000000
 ---------------------------------------------------------------------

 SCF Done:  E(RHF) =  -279.503053309     A.U. after   14 cycles
 E2 =    -0.9436366021D+00 EUMP2 =    -0.28044668991116D+03
 E2 =    -0.9436366021D+00 EUMP2 =    -0.28044668991116D+03

 The electronic state is 1-A'.
 Alpha  occ. eigenvalues --  -20.69338 -20.68078 -20.66178 -15.81047  -1.62496
 Alpha  occ. eigenvalues --   -1.49777  -1.25886  -0.94699  -0.77398  -0.76096
 Alpha  occ. eigenvalues --   -0.71441  -0.67861  -0.61968  -0.59020  -0.48672
 Alpha  occ. eigenvalues --   -0.47307
 Alpha virt. eigenvalues --    0.02922   0.07358   0.08621   0.10188   0.13383
 Alpha virt. eigenvalues --    0.13402   0.14378   0.15424   0.17793   0.19420
 Alpha virt. eigenvalues --    0.19988   0.20821   0.22038   0.23476   0.23756

 Mulliken charges:
               1
     1  H    0.250385
     2  O   -0.200580
     3  O   -0.137471
     4  N    0.287349
     5  O   -0.199683
 Sum of Mulliken charges =  -0.00000

 Dipole moment (field-independent basis, Debye):
    X=              0.5756    Y=              1.4453    Z=             -0.0000  Tot=              1.5557
 Quadrupole moment (field-independent basis, Debye-Ang):
   XX=            -22.4945   YY=            -18.6782   ZZ=            -21.9891
   XY=              3.2281   XZ=              0.0000   YZ=              0.0000

  Exact polarizability:  34.013   9.388  29.948  -0.000  -0.000  17.878
 Approx polarizability:  28.940   5.009  23.196  -0.000  -0.000  15.499

 ******    1 imaginary frequencies (negative Signs) ******

                      1                      2                      3
                     A"                     A"                     A'
 Frequencies --   -265.2543               222.7190               346.1733
 Red. masses --      1.1425                10.3099                 8.6477
 Frc consts  --      0.0474                 0.3013                 0.6106
 IR Inten    --    124.3529                 0.8518                 3.1387

                      4                      5                      6
                     A'                     A'                     A'
 Frequencies --    481.3750               796.1103               969.5472
 Red. masses --     12.2783                12.7240                15.3108
 Frc consts  --      1.6763                 4.7514                 8.4798
 IR Inten    --    184.0478               183.4185                24.3654

                      7                      8                      9
                     A'                     A'                     A'
 Frequencies --   1374.0819              1684.2537              3779.0204
 Red. masses --      1.1357                13.1556                 1.0675
 Frc consts  --      1.2634                21.9875                 8.9824
 IR Inten    --    155.6660               133.5458                82.2732

 - Thermochemistry -
 -------------------
 Temperature   298.150 Kelvin.  Pressure   1.00000 Atm.
 Atom     1 has atomic number  1 and mass   1.00783

 Molecular mass:    62.99564 amu.
 Principal axes and moments of inertia in atomic units:
                           1         2         3
     Eigenvalues --    32.46341 357.46917 389.93258
           X            0.81390  -0.58101   0.00000
           Y            0.58101   0.81390   0.00000
           Z            0.00000  -0.00000   1.00000
 This molecule is an asymmetric top.
 Rotational symmetry number  1.
 Rotational temperatures (Kelvin)      2.66805     0.24230     0.22213
 Rotational constants (GHZ):          55.59308     5.04866     4.62834
    1 imaginary frequencies ignored.
 Zero-point vibrational energy      57739.4 (Joules/Mol)
                                   13.80006 (Kcal/Mol)
 Warning -- explicit consideration of   3 degrees of freedom as
           vibrations may cause significant error
 Vibrational temperatures:    320.44   498.07   692.59  1145.43  1394.96
          (Kelvin)           1977.00  2423.27  5437.17

 Zero-point correction=                           0.021992 (Hartree/Particle)
 Thermal correction to Energy=                    0.026086
 Thermal correction to Enthalpy=                  0.027030
 Thermal correction to Gibbs Free Energy=        -0.004110
 Sum of electronic and zero-point Energies=           -280.424698
 Sum of electronic and thermal Energies=              -280.420604
 Sum of electronic and thermal Enthalpies=            -280.419660
 Sum of electronic and thermal Free Energies=         -280.450800

                     E (Thermal)             CV                S
                      KCal/Mol        Cal/Mol-Kelvin    Cal/Mol-Kelvin
 Total                   16.369             11.866             65.539
 Electronic               0.000              0.000              0.000
 Translational            0.889              2.981             38.341
 Rotational               0.889              2.981             23.030
 Vibrational             14.592              5.904              4.168
 Vibration     1          0.648              1.806              1.937
 Vibration     2          0.724              1.583              1.184
 Vibration     3          0.838              1.291              0.706

                       ! Non-Optimized Parameters !

 1\1\GINC-N2228\Freq\RMP2-FC\Aug-CC-pVTZ\H1N1O3\CGAVINH\21-Feb-2022\1\\
 #p freq mp2/aug-cc-pvtz density=current\\title\\0,1\H\O,1,r1\O,2,r2,1,
 a1\N,3,r3,2,a2,1,d1,0\O,4,r4,3,a3,2,d2,0\\r1=0.96897556\r2=1.45491931\
 r3=1.44402891\r4=1.17072885\a1=97.59494903\a2=102.29752444\a3=109.0695
 5123\d1=180.\d2=180.\\Version=ES64L-G16RevB.01\State=1-A'\HF=-279.5030
 533\MP2=-280.4466899\RMSD=3.597e-09\RMSF=1.773e-03\ZeroPoint=0.0219918
 \Thermal=0.0260856\Dipole=-0.1685035,0.,-0.5883974\DipoleDeriv=0.26763
 26,0.,0.0496728,0.,0.3559865,0.,0.0821078,0.,0.2754436,-0.3255311,0.,-

 Normal termination of Gaussian 16 at Mon Feb 21 20:21:04 2022.
