 Gaussian 16, Revision B.01,
 Gaussian 16:  ES64L-G16RevB.01 20-Dec-2017

 ---------------------------------------
 #p freq mp2/aug-cc-pvtz density=current
 ---------------------------------------

 -----
 title
 -----
 Symbolic Z-matrix:
 Charge =  0 Multiplicity = 1

                         Standard orientation:
 ---------------------------------------------------------------------
 Center     Atomic      Atomic             Coordinates (Angstroms)
 Number     Number       Type             X           Y           Z
 ---------------------------------------------------------------------
      1          1           0        1.097010   -0.609556    0.000000
      2          8           0        1.311365    0.352223    0.000000
      3          8           0       -0.000000    0.914272    0.000000
      4          7           0       -0.999122   -0.039255    0.000000
      5          8           0       -0.574260   -1.155952    0.000000
 ---------------------------------------------------------------------

 SCF Done:  E(RHF) =  -279.506104021     A.U. after   14 cycles
 E2 =    -0.9489060518D+00 EUMP2 =    -0.28045501007292D+03
 E2 =    -0.9489060518D+00 EUMP2 =    -0.28045501007292D+03

 The electronic state is 1-A'.
 Alpha  occ. eigenvalues --  -20.71826 -20.68649 -20.66726 -15.82699  -1.64623
 Alpha  occ. eigenvalues --   -1.50301  -1.29313  -0.95987  -0.83675  -0.75924
 Alpha  occ. eigenvalues --   -0.74025  -0.63519  -0.61737  -0.61735  -0.50722
 Alpha  occ. eigenvalues --   -0.49667
 Alpha virt. eigenvalues --    0.03519   0.05937   0.09512   0.10014   0.11968
 Alpha virt. eigenvalues --    0.12252   0.14977   0.15232   0.17730   0.18030
 Alpha virt. eigenvalues --    0.19008   0.21088   0.21665   0.24239   0.24636

 Mulliken charges:
               1
     1  H    0.276949
     2  O   -0.274298
     3  O    0.038108
     4  N    0.153625
     5  O   -0.194384
 Sum of Mulliken charges =  -0.00000

 Dipole moment (field-independent basis, Debye):
    X=              0.0155    Y=             -1.0923    Z=              0.0000  Tot=              1.0924
 Quadrupole moment (field-independent basis, Debye-Ang):
   XX=            -23.3463   YY=            -22.9309   ZZ=            -21.9278
   XY=             -1.9880   XZ=              0.0000   YZ=              0.0000

  Exact polarizability:  30.878   4.027  29.664   0.000   0.000  17.589
 Approx polarizability:  24.640   0.363  27.464  -0.000  -0.000  15.500

                      1                      2                      3
                     A"                     A'                     A"
 Frequencies --    356.2058               419.4908               532.2647
 Red. masses --      1.5417                 6.9701                 2.9585
 Frc consts  --      0.1153                 0.7227                 0.4938
 IR Inten    --     62.9672                 8.0028                25.0832

                      4                      5                      6
                     A'                     A'                     A'
 Frequencies --    721.5149               833.6954               975.4233
 Red. masses --     13.5767                12.3563                 9.4730
 Frc consts  --      4.1642                 5.0600                 5.3103
 IR Inten    --    219.4343                25.7238                11.6710

                      7                      8                      9
                     A'                     A'                     A'
 Frequencies --   1425.5644              1572.2105              3484.1964
 Red. masses --      1.3099                 6.4781                 1.0633
 Frc consts  --      1.5685                 9.4345                 7.6053
 IR Inten    --     81.5062               147.3135                45.3258

 - Thermochemistry -
 -------------------
 Temperature   298.150 Kelvin.  Pressure   1.00000 Atm.
 Atom     1 has atomic number  1 and mass   1.00783

 Molecular mass:    62.99564 amu.
 Principal axes and moments of inertia in atomic units:
                           1         2         3
     Eigenvalues --    85.13965 218.65289 303.79254
           X            0.80306  -0.59589   0.00000
           Y            0.59589   0.80306   0.00000
           Z            0.00000   0.00000   1.00000
 This molecule is an asymmetric top.
 Rotational symmetry number  1.
 Rotational temperatures (Kelvin)      1.01732     0.39613     0.28511
 Rotational constants (GHZ):          21.19742     8.25391     5.94070
 Zero-point vibrational energy      61730.7 (Joules/Mol)
                                   14.75399 (Kcal/Mol)
 Warning -- explicit consideration of   3 degrees of freedom as
           vibrations may cause significant error
 Vibrational temperatures:    512.50   603.55   765.81  1038.10  1199.50
          (Kelvin)           1403.42  2051.07  2262.06  5012.98

 Zero-point correction=                           0.023512 (Hartree/Particle)
 Thermal correction to Energy=                    0.027416
 Thermal correction to Enthalpy=                  0.028360
 Thermal correction to Gibbs Free Energy=        -0.002428
 Sum of electronic and zero-point Energies=           -280.431498
 Sum of electronic and thermal Energies=              -280.427595
 Sum of electronic and thermal Enthalpies=            -280.426650
 Sum of electronic and thermal Free Energies=         -280.457438

                     E (Thermal)             CV                S
                      KCal/Mol        Cal/Mol-Kelvin    Cal/Mol-Kelvin
 Total                   17.204             12.076             64.798
 Electronic               0.000              0.000              0.000
 Translational            0.889              2.981             38.341
 Rotational               0.889              2.981             23.252
 Vibrational             15.426              6.114              3.206
 Vibration     1          0.732              1.563              1.139
 Vibration     2          0.782              1.428              0.894
 Vibration     3          0.887              1.179              0.582

                       ! Non-Optimized Parameters !

 1\1\GINC-N2095\Freq\RMP2-FC\Aug-CC-pVTZ\H1N1O3\CGAVINH\06-Mar-2022\1\\
 #p freq mp2/aug-cc-pvtz density=current\\title\\0,1\H\O,1,r1\O,2,r2,1,
 a1\N,3,r3,2,a2,1,d1,0\O,4,r4,3,a3,2,d2,0\\r1=0.98537664\r2=1.42673666\
 r3=1.38110764\r4=1.19478846\a1=100.6355057\a2=113.13777052\a3=112.8323
 827\d1=0.\d2=0.\\Version=ES64L-G16RevB.01\State=1-A'\HF=-279.506104\MP
 2=-280.4550101\RMSD=4.567e-09\RMSF=3.343e-03\ZeroPoint=0.023512\Therma
 l=0.0274155\Dipole=-0.0994268,0.,-0.4181209\DipoleDeriv=0.3206397,0.,0
 .0357619,0.,0.2974928,0.,-0.0285283,0.,0.2057697,-0.5259399,0.,0.28464

 Normal termination of Gaussian 16 at Sun Mar  6 19:49:00 2022.
