 Gaussian 16, Revision B.01,
 Gaussian 16:  ES64L-G16RevB.01 20-Dec-2017

 ---------------------------------------
 #p freq mp2/aug-cc-pvtz density=current
 ---------------------------------------

 -----
 title
 -----
 Symbolic Z-matrix:
 Charge =  0 Multiplicity = 1

                         Standard orientation:
 ---------------------------------------------------------------------
 Center     Atomic      Atomic             Coordinates (Angstroms)
 Number     Number       Type             X           Y           Z
 ---------------------------------------------------------------------
      1          1           0        1.111057   -0.599755    0.000000
      2          8           0        1.316508    0.363965    0.000000
      3          8           0       -0.000000    0.913861    0.000000
      4          7           0       -0.990260   -0.048866    0.000000
      5          8           0       -0.588912   -1.160099    0.000000
 ---------------------------------------------------------------------

 SCF Done:  E(RHF) =  -279.508457165     A.U. after   14 cycles
 E2 =    -0.9465400981D+00 EUMP2 =    -0.28045499726296D+03
 E2 =    -0.9465400981D+00 EUMP2 =    -0.28045499726296D+03

 The electronic state is 1-A'.
 Alpha  occ. eigenvalues --  -20.71674 -20.68792 -20.66710 -15.82385  -1.65209
 Alpha  occ. eigenvalues --   -1.50806  -1.29244  -0.95837  -0.83758  -0.76186
 Alpha  occ. eigenvalues --   -0.74218  -0.63750  -0.62138  -0.61887  -0.50224
 Alpha  occ. eigenvalues --   -0.49662
 Alpha virt. eigenvalues --    0.03498   0.06440   0.09515   0.10051   0.11942
 Alpha virt. eigenvalues --    0.12273   0.14932   0.15207   0.17794   0.18024
 Alpha virt. eigenvalues --    0.18982   0.21101   0.21677   0.24382   0.24660

 Mulliken charges:
               1
     1  H    0.276779
     2  O   -0.275136
     3  O    0.034873
     4  N    0.153477
     5  O   -0.189993
 Sum of Mulliken charges =  -0.00000

 Dipole moment (field-independent basis, Debye):
    X=              0.0203    Y=             -1.1542    Z=              0.0000  Tot=              1.1544
 Quadrupole moment (field-independent basis, Debye-Ang):
   XX=            -23.3545   YY=            -22.9233   ZZ=            -21.9069
   XY=             -1.9433   XZ=              0.0000   YZ=              0.0000

  Exact polarizability:  30.820   4.056  29.576   0.000   0.000  17.583
 Approx polarizability:  24.480   0.545  27.318  -0.000  -0.000  15.454

                      1                      2                      3
                     A"                     A'                     A"
 Frequencies --    345.6640               395.2840               509.8102
 Red. masses --      1.6304                 7.1153                 2.6881
 Frc consts  --      0.1148                 0.6550                 0.4116
 IR Inten    --     59.6521                 7.2237                28.5392

                      4                      5                      6
                     A'                     A'                     A'
 Frequencies --    706.0838               836.5034               973.8272
 Red. masses --     13.6285                12.2448                 9.6397
 Frc consts  --      4.0032                 5.0482                 5.3861
 IR Inten    --    223.1185                25.4560                11.8130

                      7                      8                      9
                     A'                     A'                     A'
 Frequencies --   1439.7640              1643.9124              3489.1806
 Red. masses --      1.2276                 9.2825                 1.0637
 Frc consts  --      1.4993                14.7799                 7.6300
 IR Inten    --     82.1080               162.6154                42.3273

 - Thermochemistry -
 -------------------
 Temperature   298.150 Kelvin.  Pressure   1.00000 Atm.
 Atom     1 has atomic number  1 and mass   1.00783

 Molecular mass:    62.99564 amu.
 Principal axes and moments of inertia in atomic units:
                           1         2         3
     Eigenvalues --    83.66730 222.08539 305.75269
           X            0.79983  -0.60023   0.00000
           Y            0.60023   0.79983   0.00000
           Z            0.00000   0.00000   1.00000
 This molecule is an asymmetric top.
 Rotational symmetry number  1.
 Rotational temperatures (Kelvin)      1.03522     0.39000     0.28328
 Rotational constants (GHZ):          21.57045     8.12634     5.90262
 Zero-point vibrational energy      61847.1 (Joules/Mol)
                                   14.78181 (Kcal/Mol)
 Warning -- explicit consideration of   3 degrees of freedom as
           vibrations may cause significant error
 Vibrational temperatures:    497.33   568.73   733.50  1015.90  1203.54
          (Kelvin)           1401.12  2071.50  2365.22  5020.15

 Zero-point correction=                           0.023556 (Hartree/Particle)
 Thermal correction to Energy=                    0.027514
 Thermal correction to Enthalpy=                  0.028459
 Thermal correction to Gibbs Free Energy=        -0.002425
 Sum of electronic and zero-point Energies=           -280.431441
 Sum of electronic and thermal Energies=              -280.427483
 Sum of electronic and thermal Enthalpies=            -280.426539
 Sum of electronic and thermal Free Energies=         -280.457423

                     E (Thermal)             CV                S
                      KCal/Mol        Cal/Mol-Kelvin    Cal/Mol-Kelvin
 Total                   17.266             12.208             65.001
 Electronic               0.000              0.000              0.000
 Translational            0.889              2.981             38.341
 Rotational               0.889              2.981             23.256
 Vibrational             15.488              6.247              3.404
 Vibration     1          0.724              1.584              1.186
 Vibration     2          0.762              1.480              0.980
 Vibration     3          0.865              1.228              0.634

                       ! Non-Optimized Parameters !

 1\1\GINC-N2095\Freq\RMP2-FC\Aug-CC-pVTZ\H1N1O3\CGAVINH\06-Mar-2022\1\\
 #p freq mp2/aug-cc-pvtz density=current\\title\\0,1\H\O,1,r1\O,2,r2,1,
 a1\N,3,r3,2,a2,1,d1,0\O,4,r4,3,a3,2,d2,0\\r1=0.98537664\r2=1.42673666\
 r3=1.38110764\r4=1.18149077\a1=100.6355057\a2=113.13777052\a3=114.3339
 2022\d1=0.\d2=0.\\Version=ES64L-G16RevB.01\State=1-A'\HF=-279.5084572\
 MP2=-280.4549973\RMSD=3.277e-09\RMSF=6.752e-03\ZeroPoint=0.0235563\The
 rmal=0.0275144\Dipole=-0.1024945,0.,-0.4424596\DipoleDeriv=0.3165296,0
 .,0.0375595,0.,0.2981105,0.,-0.0251118,0.,0.1985189,-0.5273606,0.,0.27

 Normal termination of Gaussian 16 at Sun Mar  6 19:22:05 2022.
