 Gaussian 16, Revision B.01,
 Gaussian 16:  ES64L-G16RevB.01 20-Dec-2017

 ---------------------------------------
 #p freq mp2/aug-cc-pvtz density=current
 ---------------------------------------

 -----
 title
 -----
 Symbolic Z-matrix:
 Charge =  0 Multiplicity = 1

                         Standard orientation:
 ---------------------------------------------------------------------
 Center     Atomic      Atomic             Coordinates (Angstroms)
 Number     Number       Type             X           Y           Z
 ---------------------------------------------------------------------
      1          1           0        1.087888   -0.592229    0.000000
      2          8           0        1.316251    0.366321    0.000000
      3          8           0        0.000000    0.916830    0.000000
      4          7           0       -0.990709   -0.045436    0.000000
      5          8           0       -0.585367   -1.169365    0.000000
 ---------------------------------------------------------------------

 SCF Done:  E(RHF) =  -279.506070763     A.U. after   14 cycles
 E2 =    -0.9491012291D+00 EUMP2 =    -0.28045517199168D+03
 E2 =    -0.9491012291D+00 EUMP2 =    -0.28045517199168D+03

 The electronic state is 1-A'.
 Alpha  occ. eigenvalues --  -20.71966 -20.68808 -20.66857 -15.82669  -1.64538
 Alpha  occ. eigenvalues --   -1.50593  -1.29387  -0.96033  -0.83589  -0.75945
 Alpha  occ. eigenvalues --   -0.74049  -0.63787  -0.61895  -0.61884  -0.50558
 Alpha  occ. eigenvalues --   -0.49765
 Alpha virt. eigenvalues --    0.03532   0.05968   0.09504   0.10032   0.11946
 Alpha virt. eigenvalues --    0.12261   0.14932   0.15273   0.17741   0.17991
 Alpha virt. eigenvalues --    0.18966   0.21086   0.21690   0.24234   0.24632

 Mulliken charges:
               1
     1  H    0.274099
     2  O   -0.274763
     3  O    0.038452
     4  N    0.155855
     5  O   -0.193643
 Sum of Mulliken charges =  -0.00000

 Dipole moment (field-independent basis, Debye):
    X=              0.0191    Y=             -1.0824    Z=              0.0000  Tot=              1.0826
 Quadrupole moment (field-independent basis, Debye-Ang):
   XX=            -23.4295   YY=            -22.9473   ZZ=            -21.9282
   XY=             -1.9146   XZ=              0.0000   YZ=              0.0000

  Exact polarizability:  30.905   4.198  29.831   0.000   0.000  17.597
 Approx polarizability:  24.601   0.581  27.628  -0.000  -0.000  15.501

                      1                      2                      3
                     A"                     A'                     A"
 Frequencies --    368.0330               397.8070               522.1064
 Red. masses --      1.5550                 7.1775                 2.9020
 Frc consts  --      0.1241                 0.6692                 0.4661
 IR Inten    --     61.4182                 7.8869                25.0703

                      4                      5                      6
                     A'                     A'                     A'
 Frequencies --    712.6196               839.5065               973.0423
 Red. masses --     13.4017                12.9460                 9.7863
 Frc consts  --      4.0098                 5.3757                 5.4592
 IR Inten    --    216.0590                31.4506                12.7099

                      7                      8                      9
                     A'                     A'                     A'
 Frequencies --   1448.4456              1574.7023              3479.5272
 Red. masses --      1.3477                 5.3489                 1.0636
 Frc consts  --      1.6659                 7.8147                 7.5870
 IR Inten    --     81.3436               150.4642                44.7209

 - Thermochemistry -
 -------------------
 Temperature   298.150 Kelvin.  Pressure   1.00000 Atm.
 Atom     1 has atomic number  1 and mass   1.00783

 Molecular mass:    62.99564 amu.
 Principal axes and moments of inertia in atomic units:
                           1         2         3
     Eigenvalues --    84.38100 222.55285 306.93385
           X            0.79544  -0.60604   0.00000
           Y            0.60604   0.79544   0.00000
           Z            0.00000   0.00000   1.00000
 This molecule is an asymmetric top.
 Rotational symmetry number  1.
 Rotational temperatures (Kelvin)      1.02646     0.38918     0.28219
 Rotational constants (GHZ):          21.38800     8.10927     5.87990
 Zero-point vibrational energy      61702.1 (Joules/Mol)
                                   14.74716 (Kcal/Mol)
 Warning -- explicit consideration of   3 degrees of freedom as
           vibrations may cause significant error
 Vibrational temperatures:    529.52   572.36   751.19  1025.30  1207.86
          (Kelvin)           1399.99  2083.99  2265.65  5006.26

 Zero-point correction=                           0.023501 (Hartree/Particle)
 Thermal correction to Energy=                    0.027421
 Thermal correction to Enthalpy=                  0.028365
 Thermal correction to Gibbs Free Energy=        -0.002457
 Sum of electronic and zero-point Energies=           -280.431671
 Sum of electronic and thermal Energies=              -280.427751
 Sum of electronic and thermal Enthalpies=            -280.426807
 Sum of electronic and thermal Free Energies=         -280.457629

                     E (Thermal)             CV                S
                      KCal/Mol        Cal/Mol-Kelvin    Cal/Mol-Kelvin
 Total                   17.207             12.123             64.871
 Electronic               0.000              0.000              0.000
 Translational            0.889              2.981             38.341
 Rotational               0.889              2.981             23.270
 Vibrational             15.430              6.162              3.260
 Vibration     1          0.741              1.538              1.088
 Vibration     2          0.764              1.475              0.971
 Vibration     3          0.877              1.201              0.605

                       ! Non-Optimized Parameters !

 1\1\GINC-N2199\Freq\RMP2-FC\Aug-CC-pVTZ\H1N1O3\CGAVINH\06-Mar-2022\1\\
 #p freq mp2/aug-cc-pvtz density=current\\title\\0,1\H\O,1,r1\O,2,r2,1,
 a1\N,3,r3,2,a2,1,d1,0\O,4,r4,3,a3,2,d2,0\\r1=0.98537664\r2=1.42673666\
 r3=1.38110764\r4=1.19478846\a1=99.29635037\a2=113.13777052\a3=114.3339
 2022\d1=0.\d2=0.\\Version=ES64L-G16RevB.01\State=1-A'\HF=-279.5060708\
 MP2=-280.455172\RMSD=4.474e-09\RMSF=1.265e-03\ZeroPoint=0.0235011\Ther
 mal=0.0274212\Dipole=-0.1060115,0.,-0.4125077\DipoleDeriv=0.3196312,0.
 ,0.0325965,0.,0.2949296,0.,-0.0359404,0.,0.2032465,-0.5262809,0.,0.294

 Normal termination of Gaussian 16 at Sun Mar  6 19:29:48 2022.
