 Gaussian 16, Revision B.01,
 Gaussian 16:  ES64L-G16RevB.01 20-Dec-2017

 ---------------------------------------
 #p freq mp2/aug-cc-pvtz density=current
 ---------------------------------------

 -----
 title
 -----
 Symbolic Z-matrix:
 Charge =  0 Multiplicity = 1

                         Standard orientation:
 ---------------------------------------------------------------------
 Center     Atomic      Atomic             Coordinates (Angstroms)
 Number     Number       Type             X           Y           Z
 ---------------------------------------------------------------------
      1          1           0        1.116918   -0.607313    0.000000
      2          8           0        1.327823    0.355228    0.000000
      3          8           0       -0.000000    0.918704    0.000000
      4          7           0       -0.995697   -0.038399    0.000000
      5          8           0       -0.596203   -1.164420    0.000000
 ---------------------------------------------------------------------

 SCF Done:  E(RHF) =  -279.505353213     A.U. after   14 cycles
 E2 =    -0.9497804659D+00 EUMP2 =    -0.28045513367884D+03
 E2 =    -0.9497804659D+00 EUMP2 =    -0.28045513367884D+03

 The electronic state is 1-A'.
 Alpha  occ. eigenvalues --  -20.71971 -20.68702 -20.66978 -15.82622  -1.64189
 Alpha  occ. eigenvalues --   -1.49988  -1.29577  -0.95952  -0.83188  -0.75783
 Alpha  occ. eigenvalues --   -0.73783  -0.63960  -0.61680  -0.61504  -0.50413
 Alpha  occ. eigenvalues --   -0.50012
 Alpha virt. eigenvalues --    0.03488   0.06034   0.09508   0.10017   0.11984
 Alpha virt. eigenvalues --    0.12224   0.14834   0.15095   0.17757   0.18057
 Alpha virt. eigenvalues --    0.18988   0.21092   0.21655   0.23524   0.24633

 Mulliken charges:
               1
     1  H    0.280461
     2  O   -0.276044
     3  O    0.033585
     4  N    0.156912
     5  O   -0.194914
 Sum of Mulliken charges =  -0.00000

 Dipole moment (field-independent basis, Debye):
    X=              0.0247    Y=             -1.1140    Z=              0.0000  Tot=              1.1142
 Quadrupole moment (field-independent basis, Debye-Ang):
   XX=            -23.3795   YY=            -22.9153   ZZ=            -21.9542
   XY=             -2.0088   XZ=              0.0000   YZ=              0.0000

  Exact polarizability:  31.196   4.059  29.853   0.000   0.000  17.664
 Approx polarizability:  24.893   0.401  27.724  -0.000  -0.000  15.538

                      1                      2                      3
                     A"                     A'                     A"
 Frequencies --    353.1472               394.5263               522.0272
 Red. masses --      1.5442                 7.0822                 2.9560
 Frc consts  --      0.1135                 0.6495                 0.4746
 IR Inten    --     63.5199                 7.5604                25.2501

                      4                      5                      6
                     A'                     A'                     A'
 Frequencies --    706.5701               807.4504               954.5065
 Red. masses --     13.2780                13.1893                 9.2001
 Frc consts  --      3.9057                 5.0664                 4.9385
 IR Inten    --    210.4567                33.5380                13.5080

                      7                      8                      9
                     A'                     A'                     A'
 Frequencies --   1419.1611              1566.9666              3494.0860
 Red. masses --      1.2724                 7.4103                 1.0640
 Frc consts  --      1.5098                10.7203                 7.6536
 IR Inten    --     80.7973               148.6393                41.8616

 - Thermochemistry -
 -------------------
 Temperature   298.150 Kelvin.  Pressure   1.00000 Atm.
 Atom     1 has atomic number  1 and mass   1.00783

 Molecular mass:    62.99564 amu.
 Principal axes and moments of inertia in atomic units:
                           1         2         3
     Eigenvalues --    85.45005 223.79980 309.24986
           X            0.80456  -0.59387   0.00000
           Y            0.59387   0.80456   0.00000
           Z            0.00000   0.00000   1.00000
 This molecule is an asymmetric top.
 Rotational symmetry number  1.
 Rotational temperatures (Kelvin)      1.01362     0.38702     0.28008
 Rotational constants (GHZ):          21.12042     8.06409     5.83587
 Zero-point vibrational energy      61119.9 (Joules/Mol)
                                   14.60800 (Kcal/Mol)
 Warning -- explicit consideration of   3 degrees of freedom as
           vibrations may cause significant error
 Vibrational temperatures:    508.10   567.64   751.08  1016.60  1161.74
          (Kelvin)           1373.32  2041.86  2254.52  5027.21

 Zero-point correction=                           0.023279 (Hartree/Particle)
 Thermal correction to Energy=                    0.027234
 Thermal correction to Enthalpy=                  0.028178
 Thermal correction to Gibbs Free Energy=        -0.002713
 Sum of electronic and zero-point Energies=           -280.431854
 Sum of electronic and thermal Energies=              -280.427900
 Sum of electronic and thermal Enthalpies=            -280.426956
 Sum of electronic and thermal Free Energies=         -280.457846

                     E (Thermal)             CV                S
                      KCal/Mol        Cal/Mol-Kelvin    Cal/Mol-Kelvin
 Total                   17.089             12.257             65.014
 Electronic               0.000              0.000              0.000
 Translational            0.889              2.981             38.341
 Rotational               0.889              2.981             23.296
 Vibrational             15.312              6.295              3.378
 Vibration     1          0.729              1.569              1.152
 Vibration     2          0.761              1.482              0.983
 Vibration     3          0.877              1.201              0.605

                       ! Non-Optimized Parameters !

 1\1\GINC-N2218\Freq\RMP2-FC\Aug-CC-pVTZ\H1N1O3\CGAVINH\06-Mar-2022\1\\
 #p freq mp2/aug-cc-pvtz density=current\\title\\0,1\H\O,1,r1\O,2,r2,1,
 a1\N,3,r3,2,a2,1,d1,0\O,4,r4,3,a3,2,d2,0\\r1=0.98537664\r2=1.44243528\
 r3=1.38110764\r4=1.19478846\a1=100.6355057\a2=113.13777052\a3=114.3339
 2022\d1=0.\d2=0.\\Version=ES64L-G16RevB.01\State=1-A'\HF=-279.5053532\
 MP2=-280.4551337\RMSD=4.720e-09\RMSF=2.346e-03\ZeroPoint=0.0232793\The
 rmal=0.0272335\Dipole=-0.1032796,0.,-0.4260365\DipoleDeriv=0.316744,0.
 ,0.0372965,0.,0.2987822,0.,-0.0194524,0.,0.1979339,-0.5311185,0.,0.266

 Normal termination of Gaussian 16 at Sun Mar  6 18:59:24 2022.
