 Gaussian 16, Revision B.01,
 Gaussian 16:  ES64L-G16RevB.01 20-Dec-2017

 ---------------------------------------
 #p freq mp2/aug-cc-pvtz density=current
 ---------------------------------------

 -----
 title
 -----
 Symbolic Z-matrix:
 Charge =  0 Multiplicity = 1

                         Standard orientation:
 ---------------------------------------------------------------------
 Center     Atomic      Atomic             Coordinates (Angstroms)
 Number     Number       Type             X           Y           Z
 ---------------------------------------------------------------------
      1          1           0        1.107755   -0.596622    0.000000
      2          8           0        1.315306    0.366648    0.000000
      3          8           0       -0.000000    0.919412    0.000000
      4          7           0       -0.992356   -0.041154    0.000000
      5          8           0       -0.585464   -1.175472    0.000000
 ---------------------------------------------------------------------

 SCF Done:  E(RHF) =  -279.504527673     A.U. after   14 cycles
 E2 =    -0.9505850481D+00 EUMP2 =    -0.28045511272095D+03
 E2 =    -0.9505850481D+00 EUMP2 =    -0.28045511272095D+03

 The electronic state is 1-A'.
 Alpha  occ. eigenvalues --  -20.72214 -20.68674 -20.66919 -15.82769  -1.63880
 Alpha  occ. eigenvalues --   -1.50257  -1.29479  -0.96191  -0.83256  -0.75678
 Alpha  occ. eigenvalues --   -0.73850  -0.63729  -0.61853  -0.61598  -0.50654
 Alpha  occ. eigenvalues --   -0.49816
 Alpha virt. eigenvalues --    0.03513   0.05707   0.09504   0.10032   0.11995
 Alpha virt. eigenvalues --    0.12250   0.14933   0.15202   0.17723   0.18042
 Alpha virt. eigenvalues --    0.18976   0.21101   0.21665   0.24155   0.24617

 Mulliken charges:
               1
     1  H    0.278756
     2  O   -0.273471
     3  O    0.040148
     4  N    0.154282
     5  O   -0.199715
 Sum of Mulliken charges =  -0.00000

 Dipole moment (field-independent basis, Debye):
    X=              0.0758    Y=             -1.0490    Z=              0.0000  Tot=              1.0517
 Quadrupole moment (field-independent basis, Debye-Ang):
   XX=            -23.3977   YY=            -22.9549   ZZ=            -21.9539
   XY=             -1.9970   XZ=              0.0000   YZ=              0.0000

  Exact polarizability:  31.003   4.209  30.081   0.000   0.000  17.649
 Approx polarizability:  24.627   0.499  27.933  -0.000  -0.000  15.562

                      1                      2                      3
                     A"                     A'                     A"
 Frequencies --    359.0803               398.1466               532.7602
 Red. masses --      1.5157                 7.0224                 3.0613
 Frc consts  --      0.1151                 0.6559                 0.5119
 IR Inten    --     64.7294                 8.1823                23.6484

                      4                      5                      6
                     A'                     A'                     A'
 Frequencies --    715.6242               836.8244               968.4489
 Red. masses --     13.1221                12.4623                 9.8735
 Frc consts  --      3.9594                 5.1418                 5.4560
 IR Inten    --    212.3211                35.1309                13.5823

                      7                      8                      9
                     A'                     A'                     A'
 Frequencies --   1425.0972              1520.9025              3486.2387
 Red. masses --      1.5140                 3.8260                 1.0638
 Frc consts  --      1.8116                 5.2143                 7.6176
 IR Inten    --     78.4619               140.6493                42.9666

 - Thermochemistry -
 -------------------
 Temperature   298.150 Kelvin.  Pressure   1.00000 Atm.
 Atom     1 has atomic number  1 and mass   1.00783

 Molecular mass:    62.99564 amu.
 Principal axes and moments of inertia in atomic units:
                           1         2         3
     Eigenvalues --    85.19445 223.02413 308.21858
           X            0.79354  -0.60851   0.00000
           Y            0.60851   0.79354   0.00000
           Z            0.00000   0.00000   1.00000
 This molecule is an asymmetric top.
 Rotational symmetry number  1.
 Rotational temperatures (Kelvin)      1.01666     0.38836     0.28101
 Rotational constants (GHZ):          21.18379     8.09213     5.85539
 Zero-point vibrational energy      61267.5 (Joules/Mol)
                                   14.64328 (Kcal/Mol)
 Warning -- explicit consideration of   3 degrees of freedom as
           vibrations may cause significant error
 Vibrational temperatures:    516.64   572.84   766.52  1029.62  1204.00
          (Kelvin)           1393.38  2050.40  2188.24  5015.92

 Zero-point correction=                           0.023336 (Hartree/Particle)
 Thermal correction to Energy=                    0.027259
 Thermal correction to Enthalpy=                  0.028204
 Thermal correction to Gibbs Free Energy=        -0.002634
 Sum of electronic and zero-point Energies=           -280.431777
 Sum of electronic and thermal Energies=              -280.427853
 Sum of electronic and thermal Enthalpies=            -280.426909
 Sum of electronic and thermal Free Energies=         -280.457747

                     E (Thermal)             CV                S
                      KCal/Mol        Cal/Mol-Kelvin    Cal/Mol-Kelvin
 Total                   17.106             12.141             64.904
 Electronic               0.000              0.000              0.000
 Translational            0.889              2.981             38.341
 Rotational               0.889              2.981             23.286
 Vibrational             15.328              6.180              3.277
 Vibration     1          0.734              1.557              1.126
 Vibration     2          0.764              1.474              0.969
 Vibration     3          0.888              1.178              0.581

                       ! Non-Optimized Parameters !

 1\1\GINC-N2219\Freq\RMP2-FC\Aug-CC-pVTZ\H1N1O3\CGAVINH\06-Mar-2022\1\\
 #p freq mp2/aug-cc-pvtz density=current\\title\\0,1\H\O,1,r1\O,2,r2,1,
 a1\N,3,r3,2,a2,1,d1,0\O,4,r4,3,a3,2,d2,0\\r1=0.98537664\r2=1.42673666\
 r3=1.38110764\r4=1.2050888\a1=100.6355057\a2=113.13777052\a3=114.33392
 022\d1=0.\d2=0.\\Version=ES64L-G16RevB.01\State=1-A'\HF=-279.5045277\M
 P2=-280.4551127\RMSD=5.100e-09\RMSF=4.567e-03\ZeroPoint=0.0233356\Ther
 mal=0.0272594\Dipole=-0.1160785,0.,-0.3971567\DipoleDeriv=0.3171601,0.
 ,0.0382113,0.,0.2980116,0.,-0.0239616,0.,0.2007357,-0.5290921,0.,0.285

 Normal termination of Gaussian 16 at Sun Mar  6 19:16:54 2022.
