 Gaussian 16, Revision B.01,
 Gaussian 16:  ES64L-G16RevB.01 20-Dec-2017

 ---------------------------------------
 #p freq mp2/aug-cc-pvtz density=current
 ---------------------------------------

 -----
 title
 -----
 Symbolic Z-matrix:
 Charge =  0 Multiplicity = 1

                         Standard orientation:
 ---------------------------------------------------------------------
 Center     Atomic      Atomic             Coordinates (Angstroms)
 Number     Number       Type             X           Y           Z
 ---------------------------------------------------------------------
      1          1           0        1.097874   -0.602824    0.000000
      2          8           0        1.311684    0.359077   -0.000000
      3          8           0       -0.000000    0.920381   -0.000000
      4          7           0       -0.989618   -0.043006    0.000000
      5          8           0       -0.583003   -1.166475    0.000000
 ---------------------------------------------------------------------

 SCF Done:  E(RHF) =  -279.506289005     A.U. after   14 cycles
 E2 =    -0.9489256856D+00 EUMP2 =    -0.28045521469052D+03
 E2 =    -0.9489256856D+00 EUMP2 =    -0.28045521469052D+03

 The electronic state is 1-A'.
 Alpha  occ. eigenvalues --  -20.72045 -20.68758 -20.66754 -15.82602  -1.64506
 Alpha  occ. eigenvalues --   -1.50508  -1.29375  -0.96044  -0.83579  -0.75920
 Alpha  occ. eigenvalues --   -0.74039  -0.63665  -0.61917  -0.61819  -0.50506
 Alpha  occ. eigenvalues --   -0.49767
 Alpha virt. eigenvalues --    0.03517   0.06001   0.09508   0.10020   0.11971
 Alpha virt. eigenvalues --    0.12267   0.14955   0.15235   0.17748   0.18019
 Alpha virt. eigenvalues --    0.18971   0.21099   0.21671   0.24319   0.24629

 Mulliken charges:
               1
     1  H    0.276250
     2  O   -0.274902
     3  O    0.037774
     4  N    0.155082
     5  O   -0.194203
 Sum of Mulliken charges =  -0.00000

 Dipole moment (field-independent basis, Debye):
    X=              0.0347    Y=             -1.0890    Z=              0.0000  Tot=              1.0896
 Quadrupole moment (field-independent basis, Debye-Ang):
   XX=            -23.4222   YY=            -22.9052   ZZ=            -21.9315
   XY=             -1.9622   XZ=              0.0000   YZ=              0.0000

  Exact polarizability:  30.819   4.091  29.819  -0.000  -0.000  17.609
 Approx polarizability:  24.497   0.473  27.666  -0.000  -0.000  15.509

                      1                      2                      3
                     A"                     A'                     A"
 Frequencies --    353.1358               408.7056               525.9620
 Red. masses --      1.5596                 7.0913                 2.8951
 Frc consts  --      0.1146                 0.6979                 0.4719
 IR Inten    --     62.5195                 7.8018                25.3241

                      4                      5                      6
                     A'                     A'                     A'
 Frequencies --    710.5880               837.6880               970.8153
 Red. masses --     13.3906                12.4530                 9.8546
 Frc consts  --      3.9837                 5.1486                 5.4722
 IR Inten    --    215.5865                31.7263                12.6634

                      7                      8                      9
                     A'                     A'                     A'
 Frequencies --   1435.4946              1572.4997              3483.5299
 Red. masses --      1.3160                 6.0761                 1.0637
 Frc consts  --      1.5978                 8.8524                 7.6049
 IR Inten    --     80.8006               149.1746                44.6235

 - Thermochemistry -
 -------------------
 Temperature   298.150 Kelvin.  Pressure   1.00000 Atm.
 Atom     1 has atomic number  1 and mass   1.00783

 Molecular mass:    62.99564 amu.
 Principal axes and moments of inertia in atomic units:
                           1         2         3
     Eigenvalues --    84.92221 220.85872 305.78093
           X            0.79543  -0.60604   0.00000
           Y            0.60604   0.79543   0.00000
           Z            0.00000  -0.00000   1.00000
 This molecule is an asymmetric top.
 Rotational symmetry number  1.
 Rotational temperatures (Kelvin)      1.01992     0.39217     0.28325
 Rotational constants (GHZ):          21.25170     8.17147     5.90207
 Zero-point vibrational energy      61598.2 (Joules/Mol)
                                   14.72233 (Kcal/Mol)
 Warning -- explicit consideration of   3 degrees of freedom as
           vibrations may cause significant error
 Vibrational temperatures:    508.08   588.04   756.74  1022.38  1205.25
          (Kelvin)           1396.79  2065.36  2262.48  5012.02

 Zero-point correction=                           0.023462 (Hartree/Particle)
 Thermal correction to Energy=                    0.027386
 Thermal correction to Enthalpy=                  0.028331
 Thermal correction to Gibbs Free Energy=        -0.002500
 Sum of electronic and zero-point Energies=           -280.431753
 Sum of electronic and thermal Energies=              -280.427828
 Sum of electronic and thermal Enthalpies=            -280.426884
 Sum of electronic and thermal Free Energies=         -280.457714

                     E (Thermal)             CV                S
                      KCal/Mol        Cal/Mol-Kelvin    Cal/Mol-Kelvin
 Total                   17.185             12.136             64.888
 Electronic               0.000              0.000              0.000
 Translational            0.889              2.981             38.341
 Rotational               0.889              2.981             23.265
 Vibrational             15.408              6.174              3.281
 Vibration     1          0.729              1.569              1.152
 Vibration     2          0.773              1.451              0.931
 Vibration     3          0.881              1.193              0.596

                       ! Non-Optimized Parameters !

 1\1\GINC-N2398\Freq\RMP2-FC\Aug-CC-pVTZ\H1N1O3\CGAVINH\06-Mar-2022\1\\
 #p freq mp2/aug-cc-pvtz density=current\\title\\0,1\H\O,1,r1\O,2,r2,1,
 a1\N,3,r3,2,a2,1,d1,0\O,4,r4,3,a3,2,d2,0\\r1=0.98537664\r2=1.42673666\
 r3=1.38110764\r4=1.19478846\a1=100.6355057\a2=112.60211014\a3=114.3339
 2022\d1=0.\d2=0.\\Version=ES64L-G16RevB.01\State=1-A'\HF=-279.506289\M
 P2=-280.4552147\RMSD=4.544e-09\RMSF=1.037e-03\ZeroPoint=0.0234615\Ther
 mal=0.0273864\Dipole=-0.1063095,0.,-0.4152767\DipoleDeriv=0.3183426,0.
 ,0.0357913,0.,0.2971653,0.,-0.0280446,0.,0.2040304,-0.5236858,0.,0.282

 Normal termination of Gaussian 16 at Sun Mar  6 19:36:26 2022.
