 Gaussian 16, Revision B.01,
 Gaussian 16:  ES64L-G16RevB.01 20-Dec-2017

 ---------------------------------------
 #p freq mp2/aug-cc-pvtz density=current
 ---------------------------------------

 -----
 title
 -----
 Symbolic Z-matrix:
 Charge =  0 Multiplicity = 1

                         Standard orientation:
 ---------------------------------------------------------------------
 Center     Atomic      Atomic             Coordinates (Angstroms)
 Number     Number       Type             X           Y           Z
 ---------------------------------------------------------------------
      1          1           0        1.111597   -0.586642    0.000000
      2          8           0        1.315782    0.364989   -0.000000
      3          8           0       -0.000000    0.916619   -0.000000
      4          7           0       -0.991528   -0.044802    0.000000
      5          8           0       -0.587144   -1.169076    0.000000
 ---------------------------------------------------------------------

 SCF Done:  E(RHF) =  -279.507034634     A.U. after   14 cycles
 E2 =    -0.9480876759D+00 EUMP2 =    -0.28045512231035D+03
 E2 =    -0.9480876759D+00 EUMP2 =    -0.28045512231035D+03

 The electronic state is 1-A'.
 Alpha  occ. eigenvalues --  -20.71999 -20.68713 -20.66786 -15.82603  -1.64451
 Alpha  occ. eigenvalues --   -1.50621  -1.29601  -0.96110  -0.83526  -0.75908
 Alpha  occ. eigenvalues --   -0.74017  -0.64009  -0.61910  -0.61865  -0.50458
 Alpha  occ. eigenvalues --   -0.49803
 Alpha virt. eigenvalues --    0.03516   0.06031   0.09505   0.10041   0.11962
 Alpha virt. eigenvalues --    0.12257   0.14953   0.15213   0.17732   0.18028
 Alpha virt. eigenvalues --    0.18975   0.21116   0.21683   0.24213   0.24632

 Mulliken charges:
               1
     1  H    0.270477
     2  O   -0.265800
     3  O    0.037872
     4  N    0.153367
     5  O   -0.195917
 Sum of Mulliken charges =  -0.00000

 Dipole moment (field-independent basis, Debye):
    X=              0.0553    Y=             -1.0830    Z=              0.0000  Tot=              1.0844
 Quadrupole moment (field-independent basis, Debye-Ang):
   XX=            -23.3612   YY=            -22.9590   ZZ=            -21.9182
   XY=             -1.9632   XZ=              0.0000   YZ=              0.0000

  Exact polarizability:  30.847   4.143  29.773  -0.000  -0.000  17.591
 Approx polarizability:  24.499   0.499  27.557  -0.000  -0.000  15.497

 ******    1 imaginary frequencies (negative Signs) ******

                      1                      2                      3
                     A"                     A'                     A"
 Frequencies --   -108.6222               393.4353               501.2808
 Red. masses --      1.2065                 6.9045                 6.3433
 Frc consts  --      0.0084                 0.6297                 0.9391
 IR Inten    --     81.9914                 7.9804                 7.4929

                      4                      5                      6
                     A'                     A'                     A'
 Frequencies --    710.1150               837.5521               966.0079
 Red. masses --     13.0106                12.5609                 8.9229
 Frc consts  --      3.8655                 5.1915                 4.9059
 IR Inten    --    218.6601                30.8002                14.8888

                      7                      8                      9
                     A'                     A'                     A'
 Frequencies --   1411.1145              1567.2558              3643.3740
 Red. masses --      1.2814                 7.7803                 1.0642
 Frc consts  --      1.5033                11.2596                 8.3228
 IR Inten    --     76.7149               148.1924                41.2976

 - Thermochemistry -
 -------------------
 Temperature   298.150 Kelvin.  Pressure   1.00000 Atm.
 Atom     1 has atomic number  1 and mass   1.00783

 Molecular mass:    62.99564 amu.
 Principal axes and moments of inertia in atomic units:
                           1         2         3
     Eigenvalues --    84.46207 222.64374 307.10581
           X            0.79647  -0.60468   0.00000
           Y            0.60468   0.79647   0.00000
           Z            0.00000  -0.00000   1.00000
 This molecule is an asymmetric top.
 Rotational symmetry number  1.
 Rotational temperatures (Kelvin)      1.02548     0.38902     0.28203
 Rotational constants (GHZ):          21.36748     8.10596     5.87661
    1 imaginary frequencies ignored.
 Zero-point vibrational energy      59993.5 (Joules/Mol)
                                   14.33880 (Kcal/Mol)
 Warning -- explicit consideration of   2 degrees of freedom as
           vibrations may cause significant error
 Vibrational temperatures:    566.07   721.23  1021.70  1205.05  1389.87
          (Kelvin)           2030.28  2254.93  5242.00

 Zero-point correction=                           0.022850 (Hartree/Particle)
 Thermal correction to Energy=                    0.026452
 Thermal correction to Enthalpy=                  0.027396
 Thermal correction to Gibbs Free Energy=        -0.002947
 Sum of electronic and zero-point Energies=           -280.432272
 Sum of electronic and thermal Energies=              -280.428671
 Sum of electronic and thermal Enthalpies=            -280.427727
 Sum of electronic and thermal Free Energies=         -280.458069

                     E (Thermal)             CV                S
                      KCal/Mol        Cal/Mol-Kelvin    Cal/Mol-Kelvin
 Total                   16.599             10.671             63.861
 Electronic               0.000              0.000              0.000
 Translational            0.889              2.981             38.341
 Rotational               0.889              2.981             23.272
 Vibrational             14.821              4.709              2.248
 Vibration     1          0.761              1.484              0.987
 Vibration     2          0.857              1.247              0.655

                       ! Non-Optimized Parameters !

 1\1\GINC-N2218\Freq\RMP2-FC\Aug-CC-pVTZ\H1N1O3\CGAVINH\06-Mar-2022\1\\
 #p freq mp2/aug-cc-pvtz density=current\\title\\0,1\H\O,1,r1\O,2,r2,1,
 a1\N,3,r3,2,a2,1,d1,0\O,4,r4,3,a3,2,d2,0\\r1=0.97328954\r2=1.42673666\
 r3=1.38110764\r4=1.19478846\a1=100.6355057\a2=113.13777052\a3=114.3339
 2022\d1=0.\d2=0.\\Version=ES64L-G16RevB.01\State=1-A'\HF=-279.5070346\
 MP2=-280.4551223\RMSD=4.254e-09\RMSF=3.770e-03\ZeroPoint=0.0228503\The
 rmal=0.0264515\Dipole=-0.1106668,0.,-0.4120349\DipoleDeriv=0.3122702,0
 .,0.0395797,0.,0.2999563,0.,-0.0184563,0.,0.1971093,-0.5272529,0.,0.28

 Normal termination of Gaussian 16 at Sun Mar  6 18:54:59 2022.
