 Gaussian 16, Revision B.01,
 Gaussian 16:  ES64L-G16RevB.01 20-Dec-2017

 ---------------------------------------
 #p freq mp2/aug-cc-pvtz density=current
 ---------------------------------------

 -----
 title
 -----
 Symbolic Z-matrix:
 Charge =  0 Multiplicity = 1

                         Standard orientation:
 ---------------------------------------------------------------------
 Center     Atomic      Atomic             Coordinates (Angstroms)
 Number     Number       Type             X           Y           Z
 ---------------------------------------------------------------------
      1          1           0        1.114084   -0.603881    0.000000
      2          8           0        1.323423    0.359002    0.000000
      3          8           0       -0.000000    0.918072   -0.000000
      4          7           0       -0.994138   -0.040650   -0.000000
      5          8           0       -0.592813   -1.166020   -0.000000
 ---------------------------------------------------------------------

 SCF Done:  E(RHF) =  -279.505778891     A.U. after   14 cycles
 E2 =    -0.9494190745D+00 EUMP2 =    -0.28045519796571D+03
 E2 =    -0.9494190745D+00 EUMP2 =    -0.28045519796571D+03

 The electronic state is 1-A'.
 Alpha  occ. eigenvalues --  -20.71975 -20.68711 -20.66923 -15.82615  -1.64275
 Alpha  occ. eigenvalues --   -1.50180  -1.29504  -0.95982  -0.83292  -0.75823
 Alpha  occ. eigenvalues --   -0.73860  -0.63878  -0.61738  -0.61641  -0.50434
 Alpha  occ. eigenvalues --   -0.49917
 Alpha virt. eigenvalues --    0.03495   0.06030   0.09509   0.10026   0.11979
 Alpha virt. eigenvalues --    0.12238   0.14881   0.15128   0.17756   0.18048
 Alpha virt. eigenvalues --    0.18984   0.21095   0.21661   0.23788   0.24634

 Mulliken charges:
               1
     1  H    0.279544
     2  O   -0.275351
     3  O    0.035126
     4  N    0.155884
     5  O   -0.195203
 Sum of Mulliken charges =  -0.00000

 Dipole moment (field-independent basis, Debye):
    X=              0.0346    Y=             -1.1068    Z=              0.0000  Tot=              1.1073
 Quadrupole moment (field-independent basis, Debye-Ang):
   XX=            -23.3790   YY=            -22.9253   ZZ=            -21.9466
   XY=             -1.9962   XZ=             -0.0000   YZ=             -0.0000

  Exact polarizability:  31.094   4.089  29.853   0.000  -0.000  17.647
 Approx polarizability:  24.769   0.445  27.700   0.000  -0.000  15.530

                      1                      2                      3
                     A"                     A'                     A"
 Frequencies --    353.3760               395.5531               522.5687
 Red. masses --      1.5489                 7.0748                 2.9388
 Frc consts  --      0.1140                 0.6522                 0.4728
 IR Inten    --     63.2581                 7.6412                25.3471

                      4                      5                      6
                     A'                     A'                     A'
 Frequencies --    708.4714               818.5764               960.0348
 Red. masses --     13.3034                12.9064                 9.3835
 Frc consts  --      3.9342                 5.0953                 5.0955
 IR Inten    --    213.3691                32.0628                13.2662

                      7                      8                      9
                     A'                     A'                     A'
 Frequencies --   1424.6492              1568.1606              3491.7140
 Red. masses --      1.2832                 7.0414                 1.0639
 Frc consts  --      1.5345                10.2022                 7.6426
 IR Inten    --     80.4494               149.2433                42.1923

 - Thermochemistry -
 -------------------
 Temperature   298.150 Kelvin.  Pressure   1.00000 Atm.
 Atom     1 has atomic number  1 and mass   1.00783

 Molecular mass:    62.99564 amu.
 Principal axes and moments of inertia in atomic units:
                           1         2         3
     Eigenvalues --    85.11203 223.35850 308.47053
           X            0.80155  -0.59793   0.00000
           Y            0.59793   0.80155   0.00000
           Z           -0.00000   0.00000   1.00000
 This molecule is an asymmetric top.
 Rotational symmetry number  1.
 Rotational temperatures (Kelvin)      1.01765     0.38778     0.28079
 Rotational constants (GHZ):          21.20430     8.08002     5.85061
 Zero-point vibrational energy      61267.4 (Joules/Mol)
                                   14.64325 (Kcal/Mol)
 Warning -- explicit consideration of   3 degrees of freedom as
           vibrations may cause significant error
 Vibrational temperatures:    508.43   569.11   751.86  1019.33  1177.75
          (Kelvin)           1381.28  2049.75  2256.23  5023.80

 Zero-point correction=                           0.023336 (Hartree/Particle)
 Thermal correction to Energy=                    0.027283
 Thermal correction to Enthalpy=                  0.028227
 Thermal correction to Gibbs Free Energy=        -0.002650
 Sum of electronic and zero-point Energies=           -280.431862
 Sum of electronic and thermal Energies=              -280.427915
 Sum of electronic and thermal Enthalpies=            -280.426971
 Sum of electronic and thermal Free Energies=         -280.457848

                     E (Thermal)             CV                S
                      KCal/Mol        Cal/Mol-Kelvin    Cal/Mol-Kelvin
 Total                   17.120             12.223             64.986
 Electronic               0.000              0.000              0.000
 Translational            0.889              2.981             38.341
 Rotational               0.889              2.981             23.288
 Vibrational             15.343              6.261              3.358
 Vibration     1          0.730              1.568              1.151
 Vibration     2          0.762              1.480              0.979
 Vibration     3          0.878              1.200              0.604

                       ! Non-Optimized Parameters !

 1\1\GINC-N2174\Freq\RMP2-FC\Aug-CC-pVTZ\H1N1O3\CGAVINH\06-Mar-2022\1\\
 #p freq mp2/aug-cc-pvtz density=current\\title\\0,1\H\O,1,r1\O,2,r2,1,
 a1\N,3,r3,2,a2,1,d1,0\O,4,r4,3,a3,2,d2,0\\r1=0.98537664\r2=1.43666534\
 r3=1.38110764\r4=1.19478846\a1=100.6355057\a2=113.13777052\a3=114.3339
 2022\d1=0.\d2=0.\\Version=ES64L-G16RevB.01\State=1-A'\HF=-279.5057789\
 MP2=-280.455198\RMSD=4.608e-09\RMSF=1.496e-03\ZeroPoint=0.0233355\Ther
 mal=0.0272832\Dipole=-0.1058227,0.,-0.4226134\DipoleDeriv=0.3168022,0.
 ,0.0375062,0.,0.2985282,0.,-0.021277,0.,0.1986874,-0.529798,0.,0.27182

 Normal termination of Gaussian 16 at Sun Mar  6 18:59:15 2022.
