 Gaussian 16, Revision B.01,
 Gaussian 16:  ES64L-G16RevB.01 20-Dec-2017

 ---------------------------------------
 #p freq mp2/aug-cc-pvtz density=current
 ---------------------------------------

 -----
 title
 -----
 Symbolic Z-matrix:
 Charge =  0 Multiplicity = 1

                         Standard orientation:
 ---------------------------------------------------------------------
 Center     Atomic      Atomic             Coordinates (Angstroms)
 Number     Number       Type             X           Y           Z
 ---------------------------------------------------------------------
      1          1           0        0.540844   -1.138297    0.036834
      2          8           0        1.277253   -0.484402    0.003827
      3          8           0        0.542804    0.738652   -0.013588
      4          7           0       -0.825053    0.550804    0.020162
      5          8           0       -1.165741   -0.593917   -0.012484
 ---------------------------------------------------------------------

 SCF Done:  E(RHF) =  -279.506272346     A.U. after   16 cycles
 E2 =    -0.9487405205D+00 EUMP2 =    -0.28045501286627D+03
 E2 =    -0.9487405205D+00 EUMP2 =    -0.28045501286627D+03

 The electronic state is 1-A.
 Alpha  occ. eigenvalues --  -20.71968 -20.68726 -20.66835 -15.82597  -1.64423
 Alpha  occ. eigenvalues --   -1.50517  -1.29373  -0.96036  -0.83451  -0.75894
 Alpha  occ. eigenvalues --   -0.73988  -0.63753  -0.61926  -0.61788  -0.50485
 Alpha  occ. eigenvalues --   -0.49722
 Alpha virt. eigenvalues --    0.03505   0.06010   0.09512   0.10038   0.11900
 Alpha virt. eigenvalues --    0.12314   0.14948   0.15204   0.17731   0.18058
 Alpha virt. eigenvalues --    0.18960   0.21119   0.21681   0.24253   0.24632

 Mulliken charges:
               1
     1  H    0.278203
     2  O   -0.274058
     3  O    0.037401
     4  N    0.154422
     5  O   -0.195968
 Sum of Mulliken charges =  -0.00000

 Dipole moment (field-independent basis, Debye):
    X=             -0.6062    Y=             -0.9136    Z=              0.0527  Tot=              1.0977
 Quadrupole moment (field-independent basis, Debye-Ang):
   XX=            -25.1099   YY=            -21.2134   ZZ=            -21.9303
   XY=             -0.3842   XZ=              0.0346   YZ=             -0.1360

  Exact polarizability:  34.493   0.730  26.270  -0.045  -0.009  17.626
 Approx polarizability:  26.137   1.636  26.067  -0.022   0.008  15.524

                      1                      2                      3
                      A                      A                      A
 Frequencies --    350.7909               395.3265               521.5290
 Red. masses --      1.5398                 7.1602                 2.9609
 Frc consts  --      0.1116                 0.6593                 0.4745
 IR Inten    --     63.5965                 7.8159                25.3148

                      4                      5                      6
                      A                      A                      A
 Frequencies --    711.5573               837.2714               970.9974
 Red. masses --     13.2977                12.3558                 9.7936
 Frc consts  --      3.9669                 5.1033                 5.4404
 IR Inten    --    217.3190                30.5590                12.7831

                      7                      8                      9
                      A                      A                      A
 Frequencies --   1434.7968              1570.1095              3488.1692
 Red. masses --      1.3055                 6.3817                 1.0638
 Frc consts  --      1.5835                 9.2693                 7.6260
 IR Inten    --     79.8410               149.9255                42.4328

 - Thermochemistry -
 -------------------
 Temperature   298.150 Kelvin.  Pressure   1.00000 Atm.
 Atom     1 has atomic number  1 and mass   1.00783

 Molecular mass:    62.99564 amu.
 Principal axes and moments of inertia in atomic units:
                           1         2         3
     Eigenvalues --    84.48692 222.78929 307.18596
           X            0.99987  -0.01593   0.00034
           Y            0.01593   0.99987  -0.00180
           Z           -0.00031   0.00180   1.00000
 This molecule is an asymmetric top.
 Rotational symmetry number  1.
 Rotational temperatures (Kelvin)      1.02518     0.38877     0.28196
 Rotational constants (GHZ):          21.36119     8.10066     5.87508
 Zero-point vibrational energy      61491.3 (Joules/Mol)
                                   14.69678 (Kcal/Mol)
 Warning -- explicit consideration of   3 degrees of freedom as
           vibrations may cause significant error
 Vibrational temperatures:    504.71   568.79   750.36  1023.77  1204.65
          (Kelvin)           1397.05  2064.35  2259.04  5018.70

 Zero-point correction=                           0.023421 (Hartree/Particle)
 Thermal correction to Energy=                    0.027364
 Thermal correction to Enthalpy=                  0.028308
 Thermal correction to Gibbs Free Energy=        -0.002558
 Sum of electronic and zero-point Energies=           -280.431592
 Sum of electronic and thermal Energies=              -280.427649
 Sum of electronic and thermal Enthalpies=            -280.426705
 Sum of electronic and thermal Free Energies=         -280.457571

                     E (Thermal)             CV                S
                      KCal/Mol        Cal/Mol-Kelvin    Cal/Mol-Kelvin
 Total                   17.171             12.179             64.964
 Electronic               0.000              0.000              0.000
 Translational            0.889              2.981             38.341
 Rotational               0.889              2.981             23.274
 Vibrational             15.394              6.217              3.350
 Vibration     1          0.728              1.574              1.163
 Vibration     2          0.762              1.480              0.980
 Vibration     3          0.877              1.202              0.606

                       ! Non-Optimized Parameters !

 1\1\GINC-N2095\Freq\RMP2-FC\Aug-CC-pVTZ\H1N1O3\CGAVINH\06-Mar-2022\1\\
 #p freq mp2/aug-cc-pvtz density=current\\title\\0,1\H\O,1,r1\O,2,r2,1,
 a1\N,3,r3,2,a2,1,d1,0\O,4,r4,3,a3,2,d2,0\\r1=0.98537664\r2=1.42673666\
 r3=1.38110764\r4=1.19478846\a1=100.6355057\a2=113.13777052\a3=114.3339
 2022\d1=0.\d2=-3.71211614\\Version=ES64L-G16RevB.01\State=1-A\HF=-279.
 5062723\MP2=-280.4550129\RMSD=6.732e-09\RMSF=1.937e-03\ZeroPoint=0.023
 4208\Thermal=0.0273641\Dipole=-0.1104391,0.0060767,-0.417462\DipoleDer
 iv=0.3164833,-0.0028099,0.0383057,-0.0035737,0.2982032,0.0003492,-0.02

 Normal termination of Gaussian 16 at Sun Mar  6 20:07:51 2022.
