 Gaussian 16, Revision B.01,
 Gaussian 16:  ES64L-G16RevB.01 20-Dec-2017

 ---------------------------------------
 #p freq mp2/aug-cc-pvtz density=current
 ---------------------------------------

 -----
 title
 -----
 Symbolic Z-matrix:
 Charge =  0 Multiplicity = 1

                         Standard orientation:
 ---------------------------------------------------------------------
 Center     Atomic      Atomic             Coordinates (Angstroms)
 Number     Number       Type             X           Y           Z
 ---------------------------------------------------------------------
      1          1           0        1.096732   -0.614243    0.000000
      2          8           0        1.311263    0.347497    0.000000
      3          8           0        0.000000    0.909784    0.000000
      4          7           0       -0.983255   -0.028257    0.000000
      5          8           0       -0.588006   -1.155776    0.000000
 ---------------------------------------------------------------------

 SCF Done:  E(RHF) =  -279.508101051     A.U. after   14 cycles
 E2 =    -0.9469544766D+00 EUMP2 =    -0.28045505552784D+03
 E2 =    -0.9469544766D+00 EUMP2 =    -0.28045505552784D+03

 The electronic state is 1-A'.
 Alpha  occ. eigenvalues --  -20.72352 -20.68203 -20.66951 -15.82329  -1.65022
 Alpha  occ. eigenvalues --   -1.50508  -1.30180  -0.95925  -0.83706  -0.76183
 Alpha  occ. eigenvalues --   -0.74519  -0.63828  -0.61792  -0.61629  -0.50479
 Alpha  occ. eigenvalues --   -0.49967
 Alpha virt. eigenvalues --    0.03497   0.06360   0.09514   0.10049   0.11970
 Alpha virt. eigenvalues --    0.12305   0.14865   0.15160   0.17740   0.18068
 Alpha virt. eigenvalues --    0.18962   0.21121   0.21662   0.24268   0.24646

 Mulliken charges:
               1
     1  H    0.278062
     2  O   -0.277411
     3  O    0.055338
     4  N    0.146478
     5  O   -0.202467
 Sum of Mulliken charges =  -0.00000

 Dipole moment (field-independent basis, Debye):
    X=              0.1036    Y=             -0.9931    Z=              0.0000  Tot=              0.9985
 Quadrupole moment (field-independent basis, Debye-Ang):
   XX=            -23.4548   YY=            -22.8926   ZZ=            -21.8969
   XY=             -2.0206   XZ=              0.0000   YZ=              0.0000

  Exact polarizability:  30.805   3.976  29.529   0.000   0.000  17.546
 Approx polarizability:  24.390   0.421  27.323  -0.000  -0.000  15.477

                      1                      2                      3
                     A"                     A'                     A"
 Frequencies --    362.9030               414.8680               528.2605
 Red. masses --      1.6221                 6.9139                 2.7061
 Frc consts  --      0.1259                 0.7011                 0.4449
 IR Inten    --     61.1042                 7.3949                27.5767

                      4                      5                      6
                     A'                     A'                     A'
 Frequencies --    793.1818               838.5949               977.1880
 Red. masses --     13.0523                12.8695                 9.4893
 Frc consts  --      4.8382                 5.3323                 5.3388
 IR Inten    --    184.5679                43.2051                15.5577

                      7                      8                      9
                     A'                     A'                     A'
 Frequencies --   1431.7546              1582.1463              3484.8435
 Red. masses --      1.2938                 6.9359                 1.0634
 Frc consts  --      1.5627                10.2293                 7.6091
 IR Inten    --     81.7336               150.6815                46.7628

 - Thermochemistry -
 -------------------
 Temperature   298.150 Kelvin.  Pressure   1.00000 Atm.
 Atom     1 has atomic number  1 and mass   1.00783

 Molecular mass:    62.99564 amu.
 Principal axes and moments of inertia in atomic units:
                           1         2         3
     Eigenvalues --    84.49176 217.92638 302.41815
           X            0.80316  -0.59576   0.00000
           Y            0.59576   0.80316   0.00000
           Z            0.00000   0.00000   1.00000
 This molecule is an asymmetric top.
 Rotational symmetry number  1.
 Rotational temperatures (Kelvin)      1.02512     0.39745     0.28640
 Rotational constants (GHZ):          21.35997     8.28143     5.96770
 Zero-point vibrational energy      62288.0 (Joules/Mol)
                                   14.88719 (Kcal/Mol)
 Warning -- explicit consideration of   3 degrees of freedom as
           vibrations may cause significant error
 Vibrational temperatures:    522.14   596.90   760.05  1141.21  1206.55
          (Kelvin)           1405.96  2059.98  2276.36  5013.91

 Zero-point correction=                           0.023724 (Hartree/Particle)
 Thermal correction to Energy=                    0.027602
 Thermal correction to Enthalpy=                  0.028546
 Thermal correction to Gibbs Free Energy=        -0.002197
 Sum of electronic and zero-point Energies=           -280.431331
 Sum of electronic and thermal Energies=              -280.427454
 Sum of electronic and thermal Enthalpies=            -280.426509
 Sum of electronic and thermal Free Energies=         -280.457253

                     E (Thermal)             CV                S
                      KCal/Mol        Cal/Mol-Kelvin    Cal/Mol-Kelvin
 Total                   17.320             11.941             64.705
 Electronic               0.000              0.000              0.000
 Translational            0.889              2.981             38.341
 Rotational               0.889              2.981             23.236
 Vibrational             15.543              5.979              3.128
 Vibration     1          0.737              1.549              1.110
 Vibration     2          0.778              1.438              0.910
 Vibration     3          0.883              1.187              0.591

                       ! Non-Optimized Parameters !

 1\1\GINC-N2109\Freq\RMP2-FC\Aug-CC-pVTZ\H1N1O3\CGAVINH\06-Mar-2022\1\\
 #p freq mp2/aug-cc-pvtz density=current\\title\\0,1\H\O,1,r1\O,2,r2,1,
 a1\N,3,r3,2,a2,1,d1,0\O,4,r4,3,a3,2,d2,0\\r1=0.98537664\r2=1.42673666\
 r3=1.35893778\r4=1.19478846\a1=100.6355057\a2=113.13777052\a3=114.3339
 2022\d1=0.\d2=0.\\Version=ES64L-G16RevB.01\State=1-A'\HF=-279.5081011\
 MP2=-280.4550555\RMSD=3.820e-09\RMSF=3.154e-03\ZeroPoint=0.0237242\The
 rmal=0.0276018\Dipole=-0.1248669,0.,-0.3724813\DipoleDeriv=0.3223984,0
 .,0.0360429,0.,0.2983344,0.,-0.027386,0.,0.2092794,-0.5363122,0.,0.283

 Normal termination of Gaussian 16 at Sun Mar  6 19:13:09 2022.
