 Gaussian 16, Revision B.01,
 Gaussian 16:  ES64L-G16RevB.01 20-Dec-2017

 ---------------------------------------
 #p freq mp2/aug-cc-pvtz density=current
 ---------------------------------------

 -----
 title
 -----
 Symbolic Z-matrix:
 Charge =  0 Multiplicity = 1

                         Standard orientation:
 ---------------------------------------------------------------------
 Center     Atomic      Atomic             Coordinates (Angstroms)
 Number     Number       Type             X           Y           Z
 ---------------------------------------------------------------------
      1          1           0        1.144192   -0.606393   -0.000000
      2          8           0        1.315135    0.364043   -0.000000
      3          8           0       -0.000000    0.917214    0.000000
      4          7           0       -0.992654   -0.043045    0.000000
      5          8           0       -0.589587   -1.167793   -0.000000
 ---------------------------------------------------------------------

 SCF Done:  E(RHF) =  -279.506682603     A.U. after   14 cycles
 E2 =    -0.9483776812D+00 EUMP2 =    -0.28045506028423D+03
 E2 =    -0.9483776812D+00 EUMP2 =    -0.28045506028423D+03

 The electronic state is 1-A'.
 Alpha  occ. eigenvalues --  -20.72011 -20.68598 -20.66770 -15.82497  -1.64262
 Alpha  occ. eigenvalues --   -1.50393  -1.29360  -0.96042  -0.83283  -0.75814
 Alpha  occ. eigenvalues --   -0.73918  -0.63678  -0.61821  -0.61745  -0.50331
 Alpha  occ. eigenvalues --   -0.49727
 Alpha virt. eigenvalues --    0.03466   0.06116   0.09523   0.10045   0.12013
 Alpha virt. eigenvalues --    0.12259   0.14918   0.15102   0.17774   0.18102
 Alpha virt. eigenvalues --    0.18997   0.21130   0.21639   0.24276   0.24640

 Mulliken charges:
               1
     1  H    0.283338
     2  O   -0.273585
     3  O    0.037059
     4  N    0.151519
     5  O   -0.198331
 Sum of Mulliken charges =  -0.00000

 Dipole moment (field-independent basis, Debye):
    X=              0.1047    Y=             -1.1124    Z=             -0.0000  Tot=              1.1173
 Quadrupole moment (field-independent basis, Debye-Ang):
   XX=            -23.2908   YY=            -22.9341   ZZ=            -21.9417
   XY=             -2.0717   XZ=             -0.0000   YZ=             -0.0000

  Exact polarizability:  30.953   4.052  29.894  -0.000   0.000  17.656
 Approx polarizability:  24.503   0.417  27.711  -0.000   0.000  15.537

                      1                      2                      3
                     A"                     A'                     A"
 Frequencies --    322.6637               396.2697               524.5090
 Red. masses --      1.5363                 6.8915                 3.0097
 Frc consts  --      0.0942                 0.6376                 0.4878
 IR Inten    --     66.1484                 7.5431                25.1853

                      4                      5                      6
                     A'                     A'                     A'
 Frequencies --    709.1445               831.9867               967.8642
 Red. masses --     13.2114                11.4453                 9.7543
 Frc consts  --      3.9144                 4.6678                 5.3836
 IR Inten    --    218.6220                30.0712                12.7387

                      7                      8                      9
                     A'                     A'                     A'
 Frequencies --   1410.3779              1565.0728              3499.5298
 Red. masses --      1.2703                 8.1128                 1.0641
 Frc consts  --      1.4888                11.7083                 7.6779
 IR Inten    --     78.0505               149.3492                40.6264

 - Thermochemistry -
 -------------------
 Temperature   298.150 Kelvin.  Pressure   1.00000 Atm.
 Atom     1 has atomic number  1 and mass   1.00783

 Molecular mass:    62.99564 amu.
 Principal axes and moments of inertia in atomic units:
                           1         2         3
     Eigenvalues --    84.76579 222.70643 307.47221
           X            0.79778  -0.60295   0.00000
           Y            0.60295   0.79778   0.00000
           Z            0.00000  -0.00000   1.00000
 This molecule is an asymmetric top.
 Rotational symmetry number  1.
 Rotational temperatures (Kelvin)      1.02180     0.38892     0.28170
 Rotational constants (GHZ):          21.29092     8.10368     5.86961
 Zero-point vibrational energy      61173.5 (Joules/Mol)
                                   14.62083 (Kcal/Mol)
 Warning -- explicit consideration of   3 degrees of freedom as
           vibrations may cause significant error
 Vibrational temperatures:    464.24   570.14   754.65  1020.30  1197.04
          (Kelvin)           1392.54  2029.22  2251.79  5035.04

 Zero-point correction=                           0.023300 (Hartree/Particle)
 Thermal correction to Energy=                    0.027276
 Thermal correction to Enthalpy=                  0.028220
 Thermal correction to Gibbs Free Energy=        -0.002712
 Sum of electronic and zero-point Energies=           -280.431761
 Sum of electronic and thermal Energies=              -280.427785
 Sum of electronic and thermal Enthalpies=            -280.426840
 Sum of electronic and thermal Free Energies=         -280.457772

                     E (Thermal)             CV                S
                      KCal/Mol        Cal/Mol-Kelvin    Cal/Mol-Kelvin
 Total                   17.116             12.252             65.101
 Electronic               0.000              0.000              0.000
 Translational            0.889              2.981             38.341
 Rotational               0.889              2.981             23.277
 Vibrational             15.338              6.291              3.483
 Vibration     1          0.708              1.630              1.297
 Vibration     2          0.763              1.478              0.976
 Vibration     3          0.879              1.196              0.600

                       ! Non-Optimized Parameters !

 1\1\GINC-N2109\Freq\RMP2-FC\Aug-CC-pVTZ\H1N1O3\CGAVINH\06-Mar-2022\1\\
 #p freq mp2/aug-cc-pvtz density=current\\title\\0,1\H\O,1,r1\O,2,r2,1,
 a1\N,3,r3,2,a2,1,d1,0\O,4,r4,3,a3,2,d2,0\\r1=0.98537664\r2=1.42673666\
 r3=1.38110764\r4=1.19478846\a1=102.82233719\a2=113.13777052\a3=114.333
 92022\d1=0.\d2=0.\\Version=ES64L-G16RevB.01\State=1-A'\HF=-279.5066826
 \MP2=-280.4550603\RMSD=4.341e-09\RMSF=2.074e-03\ZeroPoint=0.0232998\Th
 ermal=0.0272758\Dipole=-0.1164773,0.,-0.4238768\DipoleDeriv=0.3114575,
 0.,0.0458434,0.,0.3032013,0.,-0.0053135,0.,0.1959771,-0.5308029,0.,0.2

 Normal termination of Gaussian 16 at Sun Mar  6 19:26:29 2022.
