 Gaussian 16, Revision B.01,
 Gaussian 16:  ES64L-G16RevB.01 20-Dec-2017

 ---------------------------------------
 #p freq mp2/aug-cc-pvtz density=current
 ---------------------------------------

 -----
 title
 -----
 Symbolic Z-matrix:
 Charge =  0 Multiplicity = 1

                         Standard orientation:
 ---------------------------------------------------------------------
 Center     Atomic      Atomic             Coordinates (Angstroms)
 Number     Number       Type             X           Y           Z
 ---------------------------------------------------------------------
      1          1           0        2.248567    0.434137   -0.021570
      2          8           0        1.598221   -0.284152   -0.016704
      3          8           0        0.400516    0.541094    0.018805
      4          7           0       -0.663899   -0.456386    0.028972
      5          8           0       -1.698897    0.088129   -0.024755
 ---------------------------------------------------------------------

 SCF Done:  E(RHF) =  -279.501612684     A.U. after   14 cycles
 E2 =    -0.9450083204D+00 EUMP2 =    -0.28044662100399D+03
 E2 =    -0.9450083204D+00 EUMP2 =    -0.28044662100399D+03

 The electronic state is 1-A.
 Alpha  occ. eigenvalues --  -20.69079 -20.68436 -20.65999 -15.81279  -1.62404
 Alpha  occ. eigenvalues --   -1.49572  -1.25440  -0.94806  -0.77277  -0.75917
 Alpha  occ. eigenvalues --   -0.71198  -0.67917  -0.62052  -0.58938  -0.48522
 Alpha  occ. eigenvalues --   -0.47249
 Alpha virt. eigenvalues --    0.02963   0.07159   0.08599   0.10172   0.13265
 Alpha virt. eigenvalues --    0.13519   0.14409   0.15454   0.17814   0.19414
 Alpha virt. eigenvalues --    0.19963   0.20653   0.22088   0.23473   0.23821

 Mulliken charges:
               1
     1  H    0.250324
     2  O   -0.201564
     3  O   -0.147422
     4  N    0.291673
     5  O   -0.193012
 Sum of Mulliken charges =  -0.00000

 Dipole moment (field-independent basis, Debye):
    X=              1.2165    Y=              0.7908    Z=             -0.0079  Tot=              1.4510
 Quadrupole moment (field-independent basis, Debye-Ang):
   XX=            -17.9871   YY=            -23.0931   ZZ=            -22.0135
   XY=              2.7894   XZ=             -0.1162   YZ=              0.0453

  Exact polarizability:  41.709   0.975  22.518   0.069  -0.048  17.942
 Approx polarizability:  31.934  -1.129  20.576   0.139  -0.010  15.539

 ******    1 imaginary frequencies (negative Signs) ******

                      1                      2                      3
                      A                      A                      A
 Frequencies --   -269.5689               227.3244               341.6945
 Red. masses --      1.1386                10.5231                 8.6315
 Frc consts  --      0.0487                 0.3204                 0.5938
 IR Inten    --    124.7238                 1.3061                 4.3496

                      4                      5                      6
                      A                      A                      A
 Frequencies --    451.8009               785.6069               967.2404
 Red. masses --     12.3083                12.9137                15.3947
 Frc consts  --      1.4803                 4.6958                 8.4857
 IR Inten    --    199.4230               170.5202                22.5161

                      7                      8                      9
                      A                      A                      A
 Frequencies --   1371.1695              1677.1401              3778.6940
 Red. masses --      1.1334                13.2090                 1.0675
 Frc consts  --      1.2555                21.8907                 8.9809
 IR Inten    --    152.8370               140.3580                82.5827

 - Thermochemistry -
 -------------------
 Temperature   298.150 Kelvin.  Pressure   1.00000 Atm.
 Atom     1 has atomic number  1 and mass   1.00783

 Molecular mass:    62.99564 amu.
 Principal axes and moments of inertia in atomic units:
                           1         2         3
     Eigenvalues --    32.93944 360.02823 392.73839
           X            0.99994   0.01071  -0.00049
           Y           -0.01071   0.99994  -0.00107
           Z            0.00048   0.00108   1.00000
 This molecule is an asymmetric top.
 Rotational symmetry number  1.
 Rotational temperatures (Kelvin)      2.62949     0.24058     0.22054
 Rotational constants (GHZ):          54.78967     5.01278     4.59528
    1 imaginary frequencies ignored.
 Zero-point vibrational energy      57424.8 (Joules/Mol)
                                   13.72485 (Kcal/Mol)
 Warning -- explicit consideration of   3 degrees of freedom as
           vibrations may cause significant error
 Vibrational temperatures:    327.07   491.62   650.04  1130.31  1391.64
          (Kelvin)           1972.81  2413.03  5436.70

 Zero-point correction=                           0.021872 (Hartree/Particle)
 Thermal correction to Energy=                    0.025992
 Thermal correction to Enthalpy=                  0.026936
 Thermal correction to Gibbs Free Energy=        -0.004255
 Sum of electronic and zero-point Energies=           -280.424749
 Sum of electronic and thermal Energies=              -280.420629
 Sum of electronic and thermal Enthalpies=            -280.419685
 Sum of electronic and thermal Free Energies=         -280.450876

                     E (Thermal)             CV                S
                      KCal/Mol        Cal/Mol-Kelvin    Cal/Mol-Kelvin
 Total                   16.310             11.956             65.646
 Electronic               0.000              0.000              0.000
 Translational            0.889              2.981             38.341
 Rotational               0.889              2.981             23.059
 Vibrational             14.533              5.994              4.246
 Vibration     1          0.651              1.799              1.900
 Vibration     2          0.721              1.592              1.204
 Vibration     3          0.810              1.357              0.790

                       ! Non-Optimized Parameters !

 1\1\GINC-N2124\Freq\RMP2-FC\Aug-CC-pVTZ\H1N1O3\CGAVINH\21-Feb-2022\1\\
 #p freq mp2/aug-cc-pvtz density=current\\title\\0,1\H\O,1,r1\O,2,r2,1,
 a1\N,3,r3,2,a2,1,d1,0\O,4,r4,3,a3,2,d2,0\\r1=0.96897556\r2=1.45491931\
 r3=1.45878406\r4=1.17072885\a1=97.59494903\a2=102.29752444\a3=109.0695
 5123\d1=180.\d2=184.2657677\\Version=ES64L-G16RevB.01\State=1-A\HF=-27
 9.5016127\MP2=-280.446621\RMSD=9.721e-09\RMSF=6.842e-04\ZeroPoint=0.02
 18719\Thermal=0.0259916\Dipole=-0.1459157,-0.0031756,-0.5518784\Dipole
 Deriv=0.2663703,-0.0006369,0.0482171,0.0014856,0.3555665,0.0018745,0.0

 Normal termination of Gaussian 16 at Mon Feb 21 21:13:41 2022.
