 Gaussian 16, Revision B.01,
 Gaussian 16:  ES64L-G16RevB.01 20-Dec-2017

 ---------------------------------------
 #p freq mp2/aug-cc-pvtz density=current
 ---------------------------------------

 -----
 title
 -----
 Symbolic Z-matrix:
 Charge =  0 Multiplicity = 1

                         Standard orientation:
 ---------------------------------------------------------------------
 Center     Atomic      Atomic             Coordinates (Angstroms)
 Number     Number       Type             X           Y           Z
 ---------------------------------------------------------------------
      1          1           0        0.539863   -1.138633    0.011655
      2          8           0        1.276812   -0.484596    0.001213
      3          8           0        0.542953    0.738923   -0.004299
      4          7           0       -0.825288    0.551144    0.006377
      5          8           0       -1.165121   -0.594249   -0.003951
 ---------------------------------------------------------------------

 SCF Done:  E(RHF) =  -279.506413299     A.U. after   14 cycles
 E2 =    -0.9488041458D+00 EUMP2 =    -0.28045521744508D+03
 E2 =    -0.9488041458D+00 EUMP2 =    -0.28045521744508D+03

 The electronic state is 1-A.
 Alpha  occ. eigenvalues --  -20.71979 -20.68726 -20.66829 -15.82602  -1.64429
 Alpha  occ. eigenvalues --   -1.50516  -1.29377  -0.96035  -0.83469  -0.75893
 Alpha  occ. eigenvalues --   -0.73996  -0.63739  -0.61884  -0.61829  -0.50472
 Alpha  occ. eigenvalues --   -0.49748
 Alpha virt. eigenvalues --    0.03507   0.06024   0.09512   0.10038   0.11963
 Alpha virt. eigenvalues --    0.12267   0.14934   0.15204   0.17750   0.18037
 Alpha virt. eigenvalues --    0.18976   0.21103   0.21672   0.24254   0.24635

 Mulliken charges:
               1
     1  H    0.277948
     2  O   -0.274181
     3  O    0.037847
     4  N    0.154090
     5  O   -0.195704
 Sum of Mulliken charges =  -0.00000

 Dipole moment (field-independent basis, Debye):
    X=             -0.6061    Y=             -0.9124    Z=              0.0167  Tot=              1.0955
 Quadrupole moment (field-independent basis, Debye-Ang):
   XX=            -25.1096   YY=            -21.2113   ZZ=            -21.9331
   XY=             -0.3818   XZ=              0.0109   YZ=             -0.0430

  Exact polarizability:  34.500   0.729  26.276  -0.014  -0.003  17.620
 Approx polarizability:  26.143   1.634  26.077  -0.007   0.003  15.516

                      1                      2                      3
                      A                      A                      A
 Frequencies --    353.4217               397.0106               523.2935
 Red. masses --      1.5548                 7.0709                 2.9162
 Frc consts  --      0.1144                 0.6566                 0.4705
 IR Inten    --     62.8982                 7.7752                25.4714

                      4                      5                      6
                      A                      A                      A
 Frequencies --    711.4374               836.9188               970.9875
 Red. masses --     13.3339                12.3756                 9.7661
 Frc consts  --      3.9763                 5.1072                 5.4250
 IR Inten    --    217.2212                30.7556                12.7543

                      7                      8                      9
                      A                      A                      A
 Frequencies --   1434.0146              1570.3668              3487.6052
 Red. masses --      1.3057                 6.4016                 1.0638
 Frc consts  --      1.5819                 9.3012                 7.6234
 IR Inten    --     79.9438               150.2462                42.7081

 - Thermochemistry -
 -------------------
 Temperature   298.150 Kelvin.  Pressure   1.00000 Atm.
 Atom     1 has atomic number  1 and mass   1.00783

 Molecular mass:    62.99564 amu.
 Principal axes and moments of inertia in atomic units:
                           1         2         3
     Eigenvalues --    84.52383 222.62656 307.14136
           X            0.99987  -0.01593   0.00011
           Y            0.01593   0.99987  -0.00057
           Z           -0.00010   0.00057   1.00000
 This molecule is an asymmetric top.
 Rotational symmetry number  1.
 Rotational temperatures (Kelvin)      1.02473     0.38905     0.28200
 Rotational constants (GHZ):          21.35186     8.10659     5.87593
 Zero-point vibrational energy      61518.3 (Joules/Mol)
                                   14.70323 (Kcal/Mol)
 Warning -- explicit consideration of   3 degrees of freedom as
           vibrations may cause significant error
 Vibrational temperatures:    508.50   571.21   752.90  1023.60  1204.14
          (Kelvin)           1397.03  2063.23  2259.41  5017.89

 Zero-point correction=                           0.023431 (Hartree/Particle)
 Thermal correction to Energy=                    0.027369
 Thermal correction to Enthalpy=                  0.028313
 Thermal correction to Gibbs Free Energy=        -0.002543
 Sum of electronic and zero-point Energies=           -280.431786
 Sum of electronic and thermal Energies=              -280.427849
 Sum of electronic and thermal Enthalpies=            -280.426905
 Sum of electronic and thermal Free Energies=         -280.457761

                     E (Thermal)             CV                S
                      KCal/Mol        Cal/Mol-Kelvin    Cal/Mol-Kelvin
 Total                   17.174             12.167             64.942
 Electronic               0.000              0.000              0.000
 Translational            0.889              2.981             38.341
 Rotational               0.889              2.981             23.273
 Vibrational             15.397              6.205              3.328
 Vibration     1          0.730              1.568              1.151
 Vibration     2          0.764              1.477              0.974
 Vibration     3          0.878              1.198              0.602

                       ! Non-Optimized Parameters !

 1\1\GINC-N2398\Freq\RMP2-FC\Aug-CC-pVTZ\H1N1O3\CGAVINH\06-Mar-2022\1\\
 #p freq mp2/aug-cc-pvtz density=current\\title\\0,1\H\O,1,r1\O,2,r2,1,
 a1\N,3,r3,2,a2,1,d1,0\O,4,r4,3,a3,2,d2,0\\r1=0.98537664\r2=1.42673666\
 r3=1.38110764\r4=1.19478846\a1=100.6355057\a2=113.13777052\a3=114.3339
 2022\d1=0.\d2=-1.1738742\\Version=ES64L-G16RevB.01\State=1-A\HF=-279.5
 064133\MP2=-280.4552174\RMSD=5.751e-09\RMSF=6.419e-04\ZeroPoint=0.0234
 311\Thermal=0.0273687\Dipole=-0.1102032,0.0019276,-0.4166583\DipoleDer
 iv=0.3168684,-0.0008945,0.0379196,-0.00114,0.2980803,0.0001188,-0.0243

 Normal termination of Gaussian 16 at Sun Mar  6 20:03:58 2022.
