 Gaussian 16, Revision B.01,
 Gaussian 16:  ES64L-G16RevB.01 20-Dec-2017

 ---------------------------------------
 #p freq mp2/aug-cc-pvtz density=current
 ---------------------------------------

 -----
 title
 -----
 Symbolic Z-matrix:
 Charge =  0 Multiplicity = 1

                         Standard orientation:
 ---------------------------------------------------------------------
 Center     Atomic      Atomic             Coordinates (Angstroms)
 Number     Number       Type             X           Y           Z
 ---------------------------------------------------------------------
      1          1           0        1.106349   -0.611428    0.000000
      2          8           0        1.315886    0.366043    0.000000
      3          8           0        0.000000    0.917425    0.000000
      4          7           0       -0.991347   -0.044182    0.000000
      5          8           0       -0.586751   -1.168381    0.000000
 ---------------------------------------------------------------------

 SCF Done:  E(RHF) =  -279.505414261     A.U. after   14 cycles
 E2 =    -0.9496726096D+00 EUMP2 =    -0.28045508687067D+03
 E2 =    -0.9496726096D+00 EUMP2 =    -0.28045508687067D+03

 The electronic state is 1-A'.
 Alpha  occ. eigenvalues --  -20.71959 -20.68743 -20.66873 -15.82602  -1.64406
 Alpha  occ. eigenvalues --   -1.50397  -1.29120  -0.95950  -0.83407  -0.75876
 Alpha  occ. eigenvalues --   -0.73974  -0.63412  -0.61833  -0.61807  -0.50486
 Alpha  occ. eigenvalues --   -0.49691
 Alpha virt. eigenvalues --    0.03496   0.06018   0.09520   0.10034   0.11983
 Alpha virt. eigenvalues --    0.12264   0.14907   0.15192   0.17776   0.18040
 Alpha virt. eigenvalues --    0.18982   0.21083   0.21656   0.24301   0.24639

 Mulliken charges:
               1
     1  H    0.285675
     2  O   -0.283186
     3  O    0.037959
     4  N    0.154908
     5  O   -0.195356
 Sum of Mulliken charges =  -0.00000

 Dipole moment (field-independent basis, Debye):
    X=              0.0471    Y=             -1.1071    Z=              0.0000  Tot=              1.1081
 Quadrupole moment (field-independent basis, Debye-Ang):
   XX=            -23.3995   YY=            -22.9211   ZZ=            -21.9512
   XY=             -1.9872   XZ=              0.0000   YZ=              0.0000

  Exact polarizability:  31.011   4.141  29.956   0.000   0.000  17.653
 Approx polarizability:  24.637   0.544  27.784  -0.000  -0.000  15.536

                      1                      2                      3
                     A'                     A"                     A"
 Frequencies --    400.4278               451.3737               602.5970
 Red. masses --      7.1771                 5.0220                 1.2720
 Frc consts  --      0.6780                 0.6028                 0.2721
 IR Inten    --      7.6548                16.0772                70.8713

                      4                      5                      6
                     A'                     A'                     A'
 Frequencies --    712.4758               835.9208               975.0604
 Red. masses --     13.6294                12.2037                10.5842
 Frc consts  --      4.0763                 5.0243                 5.9289
 IR Inten    --    215.5430                30.5238                10.8776

                      7                      8                      9
                     A'                     A'                     A'
 Frequencies --   1454.0837              1574.7989              3309.6516
 Red. masses --      1.3618                 5.0556                 1.0632
 Frc consts  --      1.6965                 7.3871                 6.8615
 IR Inten    --     82.5888               153.3939                44.5234

 - Thermochemistry -
 -------------------
 Temperature   298.150 Kelvin.  Pressure   1.00000 Atm.
 Atom     1 has atomic number  1 and mass   1.00783

 Molecular mass:    62.99564 amu.
 Principal axes and moments of inertia in atomic units:
                           1         2         3
     Eigenvalues --    84.60641 222.56753 307.17394
           X            0.79613  -0.60512   0.00000
           Y            0.60512   0.79613   0.00000
           Z            0.00000   0.00000   1.00000
 This molecule is an asymmetric top.
 Rotational symmetry number  1.
 Rotational temperatures (Kelvin)      1.02373     0.38916     0.28197
 Rotational constants (GHZ):          21.33102     8.10874     5.87531
 Zero-point vibrational energy      61705.7 (Joules/Mol)
                                   14.74802 (Kcal/Mol)
 Warning -- explicit consideration of   3 degrees of freedom as
           vibrations may cause significant error
 Vibrational temperatures:    576.13   649.43   867.00  1025.09  1202.70
          (Kelvin)           1402.89  2092.10  2265.78  4761.85

 Zero-point correction=                           0.023502 (Hartree/Particle)
 Thermal correction to Energy=                    0.027292
 Thermal correction to Enthalpy=                  0.028236
 Thermal correction to Gibbs Free Energy=        -0.002368
 Sum of electronic and zero-point Energies=           -280.431584
 Sum of electronic and thermal Energies=              -280.427795
 Sum of electronic and thermal Enthalpies=            -280.426851
 Sum of electronic and thermal Free Energies=         -280.457454

                     E (Thermal)             CV                S
                      KCal/Mol        Cal/Mol-Kelvin    Cal/Mol-Kelvin
 Total                   17.126             11.765             64.410
 Electronic               0.000              0.000              0.000
 Translational            0.889              2.981             38.341
 Rotational               0.889              2.981             23.274
 Vibrational             15.348              5.803              2.796
 Vibration     1          0.766              1.469              0.961
 Vibration     2          0.810              1.358              0.792
 Vibration     3          0.961              1.026              0.445

                       ! Non-Optimized Parameters !

 1\1\GINC-N2108\Freq\RMP2-FC\Aug-CC-pVTZ\H1N1O3\CGAVINH\06-Mar-2022\1\\
 #p freq mp2/aug-cc-pvtz density=current\\title\\0,1\H\O,1,r1\O,2,r2,1,
 a1\N,3,r3,2,a2,1,d1,0\O,4,r4,3,a3,2,d2,0\\r1=0.99967829\r2=1.42673666\
 r3=1.38110764\r4=1.19478846\a1=100.6355057\a2=113.13777052\a3=114.3339
 2022\d1=0.\d2=0.\\Version=ES64L-G16RevB.01\State=1-A'\HF=-279.5054143\
 MP2=-280.4550869\RMSD=4.624e-09\RMSF=4.009e-03\ZeroPoint=0.0235025\The
 rmal=0.0272916\Dipole=-0.1094195,0.,-0.4220155\DipoleDeriv=0.3224246,0
 .,0.0357828,0.,0.2958659,0.,-0.0316052,0.,0.2031355,-0.5294626,0.,0.28

 Normal termination of Gaussian 16 at Sun Mar  6 18:50:49 2022.
