 Gaussian 16, Revision B.01,
 Gaussian 16:  ES64L-G16RevB.01 20-Dec-2017

 ---------------------------------------
 #p freq mp2/aug-cc-pvtz density=current
 ---------------------------------------

 -----
 title
 -----
 Symbolic Z-matrix:
 Charge =  0 Multiplicity = 1

                         Standard orientation:
 ---------------------------------------------------------------------
 Center     Atomic      Atomic             Coordinates (Angstroms)
 Number     Number       Type             X           Y           Z
 ---------------------------------------------------------------------
      1          1           0        1.128723   -0.589408    0.000000
      2          8           0        1.322863    0.376655    0.000000
      3          8           0       -0.000000    0.911081    0.000000
      4          7           0       -0.994555   -0.047209    0.000000
      5          8           0       -0.593718   -1.172753    0.000000
 ---------------------------------------------------------------------

 SCF Done:  E(RHF) =  -279.506546664     A.U. after   14 cycles
 E2 =    -0.9486311633D+00 EUMP2 =    -0.28045517782724D+03
 E2 =    -0.9486311633D+00 EUMP2 =    -0.28045517782724D+03

 The electronic state is 1-A'.
 Alpha  occ. eigenvalues --  -20.71867 -20.68672 -20.66952 -15.82605  -1.64301
 Alpha  occ. eigenvalues --   -1.50527  -1.29382  -0.96020  -0.83293  -0.75845
 Alpha  occ. eigenvalues --   -0.73926  -0.63878  -0.61871  -0.61778  -0.50410
 Alpha  occ. eigenvalues --   -0.49722
 Alpha virt. eigenvalues --    0.03488   0.06066   0.09516   0.10071   0.11973
 Alpha virt. eigenvalues --    0.12249   0.14887   0.15156   0.17761   0.18058
 Alpha virt. eigenvalues --    0.18990   0.21104   0.21669   0.24131   0.24646

 Mulliken charges:
               1
     1  H    0.280358
     2  O   -0.272959
     3  O    0.038135
     4  N    0.152321
     5  O   -0.197855
 Sum of Mulliken charges =  -0.00000

 Dipole moment (field-independent basis, Debye):
    X=              0.0811    Y=             -1.1026    Z=              0.0000  Tot=              1.1056
 Quadrupole moment (field-independent basis, Debye-Ang):
   XX=            -23.3026   YY=            -23.0057   ZZ=            -21.9366
   XY=             -1.9948   XZ=              0.0000   YZ=              0.0000

  Exact polarizability:  31.102   4.233  29.921   0.000   0.000  17.637
 Approx polarizability:  24.674   0.601  27.650  -0.000  -0.000  15.525

                      1                      2                      3
                     A"                     A'                     A"
 Frequencies --    354.2312               377.8327               519.2759
 Red. masses --      1.5497                 7.0166                 2.9450
 Frc consts  --      0.1146                 0.5902                 0.4679
 IR Inten    --     63.4016                 7.7311                25.7040

                      4                      5                      6
                     A'                     A'                     A'
 Frequencies --    712.8868               835.5717               971.1915
 Red. masses --     13.2519                12.2522                 9.6131
 Frc consts  --      3.9680                 5.0400                 5.3423
 IR Inten    --    220.0798                29.0288                12.9359

                      7                      8                      9
                     A'                     A'                     A'
 Frequencies --   1431.4753              1567.0167              3493.9721
 Red. masses --      1.2905                 6.9799                 1.0639
 Frc consts  --      1.5581                10.0983                 7.6523
 IR Inten    --     78.4584               152.3986                39.7649

 - Thermochemistry -
 -------------------
 Temperature   298.150 Kelvin.  Pressure   1.00000 Atm.
 Atom     1 has atomic number  1 and mass   1.00783

 Molecular mass:    62.99564 amu.
 Principal axes and moments of inertia in atomic units:
                           1         2         3
     Eigenvalues --    83.83544 225.64790 309.48334
           X            0.79767  -0.60310   0.00000
           Y            0.60310   0.79767   0.00000
           Z            0.00000   0.00000   1.00000
 This molecule is an asymmetric top.
 Rotational symmetry number  1.
 Rotational temperatures (Kelvin)      1.03314     0.38385     0.27987
 Rotational constants (GHZ):          21.52719     7.99804     5.83146
 Zero-point vibrational energy      61389.1 (Joules/Mol)
                                   14.67234 (Kcal/Mol)
 Warning -- explicit consideration of   3 degrees of freedom as
           vibrations may cause significant error
 Vibrational temperatures:    509.66   543.62   747.12  1025.69  1202.20
          (Kelvin)           1397.33  2059.57  2254.59  5027.05

 Zero-point correction=                           0.023382 (Hartree/Particle)
 Thermal correction to Energy=                    0.027341
 Thermal correction to Enthalpy=                  0.028285
 Thermal correction to Gibbs Free Energy=        -0.002615
 Sum of electronic and zero-point Energies=           -280.431796
 Sum of electronic and thermal Energies=              -280.427837
 Sum of electronic and thermal Enthalpies=            -280.426893
 Sum of electronic and thermal Free Energies=         -280.457793

                     E (Thermal)             CV                S
                      KCal/Mol        Cal/Mol-Kelvin    Cal/Mol-Kelvin
 Total                   17.156             12.216             65.034
 Electronic               0.000              0.000              0.000
 Translational            0.889              2.981             38.341
 Rotational               0.889              2.981             23.286
 Vibrational             15.379              6.254              3.408
 Vibration     1          0.730              1.567              1.147
 Vibration     2          0.748              1.517              1.048
 Vibration     3          0.874              1.207              0.612

                       ! Non-Optimized Parameters !

 1\1\GINC-N2199\Freq\RMP2-FC\Aug-CC-pVTZ\H1N1O3\CGAVINH\06-Mar-2022\1\\
 #p freq mp2/aug-cc-pvtz density=current\\title\\0,1\H\O,1,r1\O,2,r2,1,
 a1\N,3,r3,2,a2,1,d1,0\O,4,r4,3,a3,2,d2,0\\r1=0.98537664\r2=1.42673666\
 r3=1.38110764\r4=1.19478846\a1=100.6355057\a2=114.06556151\a3=114.3339
 2022\d1=0.\d2=0.\\Version=ES64L-G16RevB.01\State=1-A'\HF=-279.5065467\
 MP2=-280.4551778\RMSD=4.169e-09\RMSF=1.464e-03\ZeroPoint=0.0233819\The
 rmal=0.0273406\Dipole=-0.1167522,0.,-0.4190182\DipoleDeriv=0.3144113,0
 .,0.0413233,0.,0.2996099,0.,-0.0184284,0.,0.1930691,-0.5364079,0.,0.27

 Normal termination of Gaussian 16 at Sun Mar  6 19:34:04 2022.
