 Gaussian 16, Revision B.01,
 Gaussian 16:  ES64L-G16RevB.01 20-Dec-2017

 ---------------------------------------
 #p freq mp2/aug-cc-pvtz density=current
 ---------------------------------------

 -----
 title
 -----
 Symbolic Z-matrix:
 Charge =  0 Multiplicity = 1

                         Standard orientation:
 ---------------------------------------------------------------------
 Center     Atomic      Atomic             Coordinates (Angstroms)
 Number     Number       Type             X           Y           Z
 ---------------------------------------------------------------------
      1          1           0        1.121347   -0.586437    0.000000
      2          8           0        1.320225    0.378661    0.000000
      3          8           0       -0.000000    0.919571    0.000000
      4          7           0       -0.983676   -0.049882    0.000000
      5          8           0       -0.599677   -1.181281    0.000000
 ---------------------------------------------------------------------

 SCF Done:  E(RHF) =  -279.506244381     A.U. after   14 cycles
 E2 =    -0.9487700303D+00 EUMP2 =    -0.28045501441136D+03
 E2 =    -0.9487700303D+00 EUMP2 =    -0.28045501441136D+03

 The electronic state is 1-A'.
 Alpha  occ. eigenvalues --  -20.72134 -20.68798 -20.66922 -15.82505  -1.64244
 Alpha  occ. eigenvalues --   -1.50720  -1.29443  -0.96083  -0.83279  -0.75862
 Alpha  occ. eigenvalues --   -0.73973  -0.63945  -0.62011  -0.61935  -0.50202
 Alpha  occ. eigenvalues --   -0.49834
 Alpha virt. eigenvalues --    0.03493   0.06110   0.09510   0.10060   0.11975
 Alpha virt. eigenvalues --    0.12271   0.14882   0.15180   0.17775   0.18038
 Alpha virt. eigenvalues --    0.18948   0.21114   0.21674   0.24262   0.24636

 Mulliken charges:
               1
     1  H    0.278515
     2  O   -0.274149
     3  O    0.037629
     4  N    0.154615
     5  O   -0.196610
 Sum of Mulliken charges =  -0.00000

 Dipole moment (field-independent basis, Debye):
    X=              0.0874    Y=             -1.0963    Z=              0.0000  Tot=              1.0998
 Quadrupole moment (field-independent basis, Debye-Ang):
   XX=            -23.4106   YY=            -22.9536   ZZ=            -21.9391
   XY=             -1.9613   XZ=              0.0000   YZ=              0.0000

  Exact polarizability:  30.975   4.262  30.050   0.000   0.000  17.651
 Approx polarizability:  24.492   0.679  27.853  -0.000  -0.000  15.530

                      1                      2                      3
                     A"                     A'                     A"
 Frequencies --    350.4614               376.1607               514.1872
 Red. masses --      1.5709                 7.1496                 2.8681
 Frc consts  --      0.1137                 0.5960                 0.4468
 IR Inten    --     62.7191                 7.5705                25.8511

                      4                      5                      6
                     A'                     A'                     A'
 Frequencies --    700.1749               839.9300               966.9043
 Red. masses --     13.1288                12.4065                10.0319
 Frc consts  --      3.7922                 5.1569                 5.5258
 IR Inten    --    215.0276                35.6928                13.8734

                      7                      8                      9
                     A'                     A'                     A'
 Frequencies --   1441.6429              1568.5464              3490.6803
 Red. masses --      1.3023                 6.3259                 1.0642
 Frc consts  --      1.5946                 9.1699                 7.6398
 IR Inten    --     78.6072               153.4278                40.2764

 - Thermochemistry -
 -------------------
 Temperature   298.150 Kelvin.  Pressure   1.00000 Atm.
 Atom     1 has atomic number  1 and mass   1.00783

 Molecular mass:    62.99564 amu.
 Principal axes and moments of inertia in atomic units:
                           1         2         3
     Eigenvalues --    83.86839 226.60958 310.47797
           X            0.78994  -0.61318   0.00000
           Y            0.61318   0.78994   0.00000
           Z            0.00000   0.00000   1.00000
 This molecule is an asymmetric top.
 Rotational symmetry number  1.
 Rotational temperatures (Kelvin)      1.03274     0.38222     0.27897
 Rotational constants (GHZ):          21.51873     7.96410     5.81278
 Zero-point vibrational energy      61300.8 (Joules/Mol)
                                   14.65124 (Kcal/Mol)
 Warning -- explicit consideration of   3 degrees of freedom as
           vibrations may cause significant error
 Vibrational temperatures:    504.24   541.21   739.80  1007.40  1208.47
          (Kelvin)           1391.16  2074.20  2256.79  5022.31

 Zero-point correction=                           0.023348 (Hartree/Particle)
 Thermal correction to Energy=                    0.027321
 Thermal correction to Enthalpy=                  0.028265
 Thermal correction to Gibbs Free Energy=        -0.002662
 Sum of electronic and zero-point Energies=           -280.431666
 Sum of electronic and thermal Energies=              -280.427694
 Sum of electronic and thermal Enthalpies=            -280.426750
 Sum of electronic and thermal Free Energies=         -280.457676

                     E (Thermal)             CV                S
                      KCal/Mol        Cal/Mol-Kelvin    Cal/Mol-Kelvin
 Total                   17.144             12.257             65.090
 Electronic               0.000              0.000              0.000
 Translational            0.889              2.981             38.341
 Rotational               0.889              2.981             23.294
 Vibrational             15.367              6.295              3.456
 Vibration     1          0.727              1.574              1.164
 Vibration     2          0.747              1.521              1.055
 Vibration     3          0.869              1.219              0.624

                       ! Non-Optimized Parameters !

 1\1\GINC-N2095\Freq\RMP2-FC\Aug-CC-pVTZ\H1N1O3\CGAVINH\06-Mar-2022\1\\
 #p freq mp2/aug-cc-pvtz density=current\\title\\0,1\H\O,1,r1\O,2,r2,1,
 a1\N,3,r3,2,a2,1,d1,0\O,4,r4,3,a3,2,d2,0\\r1=0.98537664\r2=1.42673666\
 r3=1.38110764\r4=1.19478846\a1=100.6355057\a2=113.13777052\a3=115.8354
 5774\d1=0.\d2=0.\\Version=ES64L-G16RevB.01\State=1-A'\HF=-279.5062444\
 MP2=-280.4550144\RMSD=4.266e-09\RMSF=3.321e-03\ZeroPoint=0.0233482\The
 rmal=0.0273207\Dipole=-0.1207352,0.,-0.4155108\DipoleDeriv=0.3134093,0
 .,0.0399753,0.,0.2986518,0.,-0.0203141,0.,0.1940942,-0.5321329,0.,0.27

 Normal termination of Gaussian 16 at Sun Mar  6 19:44:28 2022.
