 Gaussian 16, Revision B.01,
 Gaussian 16:  ES64L-G16RevB.01 20-Dec-2017

 ---------------------------------------
 #p freq mp2/aug-cc-pvtz density=current
 ---------------------------------------

 -----
 title
 -----
 Symbolic Z-matrix:
 Charge =  0 Multiplicity = 1

                         Standard orientation:
 ---------------------------------------------------------------------
 Center     Atomic      Atomic             Coordinates (Angstroms)
 Number     Number       Type             X           Y           Z
 ---------------------------------------------------------------------
      1          1           0        1.101594   -0.607947    0.000000
      2          8           0        1.313052    0.354473    0.000000
      3          8           0       -0.000000    0.912569    0.000000
      4          7           0       -0.986453   -0.034559    0.000000
      5          8           0       -0.587605   -1.160810    0.000000
 ---------------------------------------------------------------------

 SCF Done:  E(RHF) =  -279.507506024     A.U. after   14 cycles
 E2 =    -0.9476691077D+00 EUMP2 =    -0.28045517513200D+03
 E2 =    -0.9476691077D+00 EUMP2 =    -0.28045517513200D+03

 The electronic state is 1-A'.
 Alpha  occ. eigenvalues --  -20.72207 -20.68407 -20.66905 -15.82435  -1.64780
 Alpha  occ. eigenvalues --   -1.50515  -1.29868  -0.95965  -0.83616  -0.76066
 Alpha  occ. eigenvalues --   -0.74313  -0.63788  -0.61829  -0.61711  -0.50481
 Alpha  occ. eigenvalues --   -0.49884
 Alpha virt. eigenvalues --    0.03501   0.06228   0.09514   0.10044   0.11971
 Alpha virt. eigenvalues --    0.12288   0.14893   0.15176   0.17745   0.18055
 Alpha virt. eigenvalues --    0.18968   0.21114   0.21665   0.24268   0.24641

 Mulliken charges:
               1
     1  H    0.278030
     2  O   -0.276125
     3  O    0.048573
     4  N    0.149382
     5  O   -0.199860
 Sum of Mulliken charges =  -0.00000

 Dipole moment (field-independent basis, Debye):
    X=              0.0841    Y=             -1.0319    Z=              0.0000  Tot=              1.0353
 Quadrupole moment (field-independent basis, Debye-Ang):
   XX=            -23.4253   YY=            -22.9121   ZZ=            -21.9111
   XY=             -2.0027   XZ=              0.0000   YZ=              0.0000

  Exact polarizability:  30.851   4.042  29.656   0.000   0.000  17.574
 Approx polarizability:  24.455   0.458  27.452  -0.000  -0.000  15.492

                      1                      2                      3
                     A"                     A'                     A"
 Frequencies --    359.5392               408.0727               526.4546
 Red. masses --      1.5950                 6.9676                 2.7852
 Frc consts  --      0.1215                 0.6836                 0.4548
 IR Inten    --     61.8097                 7.4243                26.7257

                      4                      5                      6
                     A'                     A'                     A'
 Frequencies --    761.0322               837.9331               974.6592
 Red. masses --     13.2729                12.6109                 9.5813
 Frc consts  --      4.5292                 5.2169                 5.3627
 IR Inten    --    201.0307                35.0875                14.2067

                      7                      8                      9
                     A'                     A'                     A'
 Frequencies --   1432.7207              1577.5233              3485.9198
 Red. masses --      1.2980                 6.7279                 1.0636
 Frc consts  --      1.5698                 9.8646                 7.6147
 IR Inten    --     80.9802               150.5038                45.1702

 - Thermochemistry -
 -------------------
 Temperature   298.150 Kelvin.  Pressure   1.00000 Atm.
 Atom     1 has atomic number  1 and mass   1.00783

 Molecular mass:    62.99564 amu.
 Principal axes and moments of inertia in atomic units:
                           1         2         3
     Eigenvalues --    84.50602 219.73451 304.24053
           X            0.80050  -0.59934   0.00000
           Y            0.59934   0.80050   0.00000
           Z            0.00000   0.00000   1.00000
 This molecule is an asymmetric top.
 Rotational symmetry number  1.
 Rotational temperatures (Kelvin)      1.02494     0.39418     0.28469
 Rotational constants (GHZ):          21.35636     8.21328     5.93196
 Zero-point vibrational energy      61989.6 (Joules/Mol)
                                   14.81587 (Kcal/Mol)
 Warning -- explicit consideration of   3 degrees of freedom as
           vibrations may cause significant error
 Vibrational temperatures:    517.30   587.13   757.45  1094.96  1205.60
          (Kelvin)           1402.32  2061.37  2269.70  5015.46

 Zero-point correction=                           0.023611 (Hartree/Particle)
 Thermal correction to Energy=                    0.027510
 Thermal correction to Enthalpy=                  0.028454
 Thermal correction to Gibbs Free Energy=        -0.002330
 Sum of electronic and zero-point Energies=           -280.431565
 Sum of electronic and thermal Energies=              -280.427665
 Sum of electronic and thermal Enthalpies=            -280.426721
 Sum of electronic and thermal Free Energies=         -280.457505

                     E (Thermal)             CV                S
                      KCal/Mol        Cal/Mol-Kelvin    Cal/Mol-Kelvin
 Total                   17.263             12.026             64.791
 Electronic               0.000              0.000              0.000
 Translational            0.889              2.981             38.341
 Rotational               0.889              2.981             23.250
 Vibrational             15.485              6.064              3.200
 Vibration     1          0.734              1.556              1.124
 Vibration     2          0.773              1.453              0.933
 Vibration     3          0.881              1.191              0.595

                       ! Non-Optimized Parameters !

 1\1\GINC-N2199\Freq\RMP2-FC\Aug-CC-pVTZ\H1N1O3\CGAVINH\06-Mar-2022\1\\
 #p freq mp2/aug-cc-pvtz density=current\\title\\0,1\H\O,1,r1\O,2,r2,1,
 a1\N,3,r3,2,a2,1,d1,0\O,4,r4,3,a3,2,d2,0\\r1=0.98537664\r2=1.42673666\
 r3=1.36753143\r4=1.19478846\a1=100.6355057\a2=113.13777052\a3=114.3339
 2022\d1=0.\d2=0.\\Version=ES64L-G16RevB.01\State=1-A'\HF=-279.507506\M
 P2=-280.4551751\RMSD=4.070e-09\RMSF=1.890e-03\ZeroPoint=0.0236106\Ther
 mal=0.0275101\Dipole=-0.1194176,0.,-0.3894128\DipoleDeriv=0.3202425,0.
 ,0.0367855,0.,0.2982351,0.,-0.0262146,0.,0.2056098,-0.5329196,0.,0.282

 Normal termination of Gaussian 16 at Sun Mar  6 19:12:23 2022.
