 Gaussian 16, Revision B.01,
 Gaussian 16:  ES64L-G16RevB.01 20-Dec-2017

 ---------------------------------------
 #p freq mp2/aug-cc-pvtz density=current
 ---------------------------------------

 -----
 title
 -----
 Symbolic Z-matrix:
 Charge =  0 Multiplicity = 1

                         Standard orientation:
 ---------------------------------------------------------------------
 Center     Atomic      Atomic             Coordinates (Angstroms)
 Number     Number       Type             X           Y           Z
 ---------------------------------------------------------------------
      1          1           0        1.074458   -0.588336    0.000000
      2          8           0        1.316517    0.366847    0.000000
      3          8           0        0.000000    0.916721    0.000000
      4          7           0       -0.990244   -0.046022    0.000000
      5          8           0       -0.584360   -1.169756    0.000000
 ---------------------------------------------------------------------

 SCF Done:  E(RHF) =  -279.505761108     A.U. after   14 cycles
 E2 =    -0.9492943371D+00 EUMP2 =    -0.28045505544544D+03
 E2 =    -0.9492943371D+00 EUMP2 =    -0.28045505544544D+03

 The electronic state is 1-A'.
 Alpha  occ. eigenvalues --  -20.71958 -20.68861 -20.66872 -15.82712  -1.64609
 Alpha  occ. eigenvalues --   -1.50642  -1.29392  -0.96033  -0.83665  -0.75980
 Alpha  occ. eigenvalues --   -0.74083  -0.63824  -0.61932  -0.61881  -0.50614
 Alpha  occ. eigenvalues --   -0.49773
 Alpha virt. eigenvalues --    0.03547   0.05931   0.09499   0.10028   0.11929
 Alpha virt. eigenvalues --    0.12261   0.14930   0.15317   0.17733   0.17963
 Alpha virt. eigenvalues --    0.18959   0.21077   0.21703   0.24219   0.24630

 Mulliken charges:
               1
     1  H    0.271536
     2  O   -0.275196
     3  O    0.038809
     4  N    0.157045
     5  O   -0.192195
 Sum of Mulliken charges =  -0.00000

 Dipole moment (field-independent basis, Debye):
    X=             -0.0016    Y=             -1.0749    Z=              0.0000  Tot=              1.0749
 Quadrupole moment (field-independent basis, Debye-Ang):
   XX=            -23.4606   YY=            -22.9508   ZZ=            -21.9249
   XY=             -1.8769   XZ=              0.0000   YZ=              0.0000

  Exact polarizability:  30.896   4.233  29.816   0.000   0.000  17.583
 Approx polarizability:  24.626   0.620  27.607  -0.000  -0.000  15.492

                      1                      2                      3
                     A"                     A'                     A"
 Frequencies --    375.4644               398.2181               520.8984
 Red. masses --      1.5465                 7.2565                 2.9231
 Frc consts  --      0.1284                 0.6780                 0.4673
 IR Inten    --     60.8524                 7.9494                24.4978

                      4                      5                      6
                     A'                     A'                     A'
 Frequencies --    713.2960               841.0121               974.4058
 Red. masses --     13.4367                13.2955                 9.8096
 Frc consts  --      4.0279                 5.5406                 5.4876
 IR Inten    --    215.2232                31.9673                12.6633

                      7                      8                      9
                     A'                     A'                     A'
 Frequencies --   1457.5627              1577.9972              3474.1949
 Red. masses --      1.3871                 4.7100                 1.0635
 Frc consts  --      1.7362                 6.9101                 7.5633
 IR Inten    --     82.4353               150.2954                46.2431

 - Thermochemistry -
 -------------------
 Temperature   298.150 Kelvin.  Pressure   1.00000 Atm.
 Atom     1 has atomic number  1 and mass   1.00783

 Molecular mass:    62.99564 amu.
 Principal axes and moments of inertia in atomic units:
                           1         2         3
     Eigenvalues --    84.28763 222.51929 306.80692
           X            0.79489  -0.60676   0.00000
           Y            0.60676   0.79489   0.00000
           Z            0.00000   0.00000   1.00000
 This molecule is an asymmetric top.
 Rotational symmetry number  1.
 Rotational temperatures (Kelvin)      1.02760     0.38924     0.28231
 Rotational constants (GHZ):          21.41170     8.11049     5.88234
 Zero-point vibrational energy      61805.4 (Joules/Mol)
                                   14.77184 (Kcal/Mol)
 Warning -- explicit consideration of   3 degrees of freedom as
           vibrations may cause significant error
 Vibrational temperatures:    540.21   572.95   749.46  1026.27  1210.03
          (Kelvin)           1401.95  2097.11  2270.39  4998.59

 Zero-point correction=                           0.023540 (Hartree/Particle)
 Thermal correction to Energy=                    0.027452
 Thermal correction to Enthalpy=                  0.028396
 Thermal correction to Gibbs Free Energy=        -0.002410
 Sum of electronic and zero-point Energies=           -280.431515
 Sum of electronic and thermal Energies=              -280.427603
 Sum of electronic and thermal Enthalpies=            -280.426659
 Sum of electronic and thermal Free Energies=         -280.457465

                     E (Thermal)             CV                S
                      KCal/Mol        Cal/Mol-Kelvin    Cal/Mol-Kelvin
 Total                   17.226             12.101             64.837
 Electronic               0.000              0.000              0.000
 Translational            0.889              2.981             38.341
 Rotational               0.889              2.981             23.269
 Vibrational             15.449              6.139              3.228
 Vibration     1          0.746              1.522              1.057
 Vibration     2          0.764              1.474              0.969
 Vibration     3          0.876              1.204              0.608

                       ! Non-Optimized Parameters !

 1\1\GINC-N2109\Freq\RMP2-FC\Aug-CC-pVTZ\H1N1O3\CGAVINH\06-Mar-2022\1\\
 #p freq mp2/aug-cc-pvtz density=current\\title\\0,1\H\O,1,r1\O,2,r2,1,
 a1\N,3,r3,2,a2,1,d1,0\O,4,r4,3,a3,2,d2,0\\r1=0.98537664\r2=1.42673666\
 r3=1.38110764\r4=1.19478846\a1=98.44867421\a2=113.13777052\a3=114.3339
 2022\d1=0.\d2=0.\\Version=ES64L-G16RevB.01\State=1-A'\HF=-279.5057611\
 MP2=-280.4550554\RMSD=4.505e-09\RMSF=2.078e-03\ZeroPoint=0.0235404\The
 rmal=0.027452\Dipole=-0.1032703,0.,-0.410109\DipoleDeriv=0.3210964,0.,
 0.0291238,0.,0.2929478,0.,-0.0430798,0.,0.2057327,-0.5248573,0.,0.3022

 Normal termination of Gaussian 16 at Sun Mar  6 19:30:53 2022.
