 Gaussian 16, Revision B.01,
 Gaussian 16:  ES64L-G16RevB.01 20-Dec-2017

 ---------------------------------------
 #p freq mp2/aug-cc-pvtz density=current
 ---------------------------------------

 -----
 title
 -----
 Symbolic Z-matrix:
 Charge =  0 Multiplicity = 1

                         Standard orientation:
 ---------------------------------------------------------------------
 Center     Atomic      Atomic             Coordinates (Angstroms)
 Number     Number       Type             X           Y           Z
 ---------------------------------------------------------------------
      1          1           0        1.114632   -0.592826    0.000000
      2          8           0        1.317804    0.371378    0.000000
      3          8           0       -0.000000    0.918160    0.000000
      4          7           0       -0.987982   -0.046905    0.000000
      5          8           0       -0.592648   -1.174393    0.000000
 ---------------------------------------------------------------------

 SCF Done:  E(RHF) =  -279.506407158     A.U. after   14 cycles
 E2 =    -0.9487863580D+00 EUMP2 =    -0.28045519351599D+03
 E2 =    -0.9487863580D+00 EUMP2 =    -0.28045519351599D+03

 The electronic state is 1-A'.
 Alpha  occ. eigenvalues --  -20.72049 -20.68759 -20.66872 -15.82559  -1.64346
 Alpha  occ. eigenvalues --   -1.50608  -1.29407  -0.96057  -0.83384  -0.75879
 Alpha  occ. eigenvalues --   -0.73986  -0.63831  -0.61936  -0.61882  -0.50352
 Alpha  occ. eigenvalues --   -0.49789
 Alpha virt. eigenvalues --    0.03501   0.06064   0.09511   0.10048   0.11973
 Alpha virt. eigenvalues --    0.12265   0.14910   0.15193   0.17763   0.18036
 Alpha virt. eigenvalues --    0.18965   0.21107   0.21672   0.24258   0.24635

 Mulliken charges:
               1
     1  H    0.278233
     2  O   -0.274168
     3  O    0.037783
     4  N    0.154286
     5  O   -0.196134
 Sum of Mulliken charges =  -0.00000

 Dipole moment (field-independent basis, Debye):
    X=              0.0678    Y=             -1.0950    Z=              0.0000  Tot=              1.0971
 Quadrupole moment (field-independent basis, Debye-Ang):
   XX=            -23.3930   YY=            -22.9472   ZZ=            -21.9359
   XY=             -1.9683   XZ=              0.0000   YZ=              0.0000

  Exact polarizability:  30.944   4.195  29.942   0.000   0.000  17.633
 Approx polarizability:  24.529   0.590  27.747  -0.000  -0.000  15.522

                      1                      2                      3
                     A"                     A'                     A"
 Frequencies --    352.3434               387.6356               519.3935
 Red. masses --      1.5630                 7.1008                 2.8917
 Frc consts  --      0.1143                 0.6286                 0.4596
 IR Inten    --     62.7714                 7.6783                25.6535

                      4                      5                      6
                     A'                     A'                     A'
 Frequencies --    706.5317               838.2598               969.1255
 Red. masses --     13.2405                12.3902                 9.8860
 Frc consts  --      3.8942                 5.1296                 5.4706
 IR Inten    --    216.2152                32.9988                13.2557

                      7                      8                      9
                     A'                     A'                     A'
 Frequencies --   1437.4558              1569.5735              3488.9704
 Red. masses --      1.3040                 6.3694                 1.0639
 Frc consts  --      1.5876                 9.2452                 7.6307
 IR Inten    --     79.3286               151.6669                41.6213

 - Thermochemistry -
 -------------------
 Temperature   298.150 Kelvin.  Pressure   1.00000 Atm.
 Atom     1 has atomic number  1 and mass   1.00783

 Molecular mass:    62.99564 amu.
 Principal axes and moments of inertia in atomic units:
                           1         2         3
     Eigenvalues --    84.23865 224.39257 308.63122
           X            0.79342  -0.60868   0.00000
           Y            0.60868   0.79342   0.00000
           Z            0.00000   0.00000   1.00000
 This molecule is an asymmetric top.
 Rotational symmetry number  1.
 Rotational temperatures (Kelvin)      1.02820     0.38599     0.28064
 Rotational constants (GHZ):          21.42415     8.04279     5.84757
 Zero-point vibrational energy      61424.0 (Joules/Mol)
                                   14.68069 (Kcal/Mol)
 Warning -- explicit consideration of   3 degrees of freedom as
           vibrations may cause significant error
 Vibrational temperatures:    506.94   557.72   747.29  1016.54  1206.07
          (Kelvin)           1394.36  2068.18  2258.27  5019.85

 Zero-point correction=                           0.023395 (Hartree/Particle)
 Thermal correction to Energy=                    0.027348
 Thermal correction to Enthalpy=                  0.028292
 Thermal correction to Gibbs Free Energy=        -0.002594
 Sum of electronic and zero-point Energies=           -280.431798
 Sum of electronic and thermal Energies=              -280.427846
 Sum of electronic and thermal Enthalpies=            -280.426902
 Sum of electronic and thermal Free Energies=         -280.457788

                     E (Thermal)             CV                S
                      KCal/Mol        Cal/Mol-Kelvin    Cal/Mol-Kelvin
 Total                   17.161             12.206             65.006
 Electronic               0.000              0.000              0.000
 Translational            0.889              2.981             38.341
 Rotational               0.889              2.981             23.282
 Vibrational             15.384              6.245              3.383
 Vibration     1          0.729              1.570              1.156
 Vibration     2          0.756              1.497              1.009
 Vibration     3          0.874              1.207              0.611

                       ! Non-Optimized Parameters !

 1\1\GINC-N2174\Freq\RMP2-FC\Aug-CC-pVTZ\H1N1O3\CGAVINH\06-Mar-2022\1\\
 #p freq mp2/aug-cc-pvtz density=current\\title\\0,1\H\O,1,r1\O,2,r2,1,
 a1\N,3,r3,2,a2,1,d1,0\O,4,r4,3,a3,2,d2,0\\r1=0.98537664\r2=1.42673666\
 r3=1.38110764\r4=1.19478846\a1=100.6355057\a2=113.13777052\a3=115.0054
 2821\d1=0.\d2=0.\\Version=ES64L-G16RevB.01\State=1-A'\HF=-279.5064072\
 MP2=-280.4551935\RMSD=4.356e-09\RMSF=1.537e-03\ZeroPoint=0.0233952\The
 rmal=0.0273478\Dipole=-0.1149246,0.,-0.416034\DipoleDeriv=0.3153176,0.
 ,0.0388184,0.,0.2983272,0.,-0.022608,0.,0.1972922,-0.5298017,0.,0.2802

 Normal termination of Gaussian 16 at Sun Mar  6 19:42:37 2022.
