 Gaussian 16, Revision B.01,
 Gaussian 16:  ES64L-G16RevB.01 20-Dec-2017

 ---------------------------------------
 #p freq mp2/aug-cc-pvtz density=current
 ---------------------------------------

 -----
 title
 -----
 Symbolic Z-matrix:
 Charge =  0 Multiplicity = 1

                         Standard orientation:
 ---------------------------------------------------------------------
 Center     Atomic      Atomic             Coordinates (Angstroms)
 Number     Number       Type             X           Y           Z
 ---------------------------------------------------------------------
      1          1           0        1.552719    1.681320   -0.000000
      2          8           0        1.454232    0.717362   -0.000000
      3          8           0       -0.000000    0.672645   -0.000000
      4          7           0       -0.266749   -0.761544    0.000000
      5          8           0       -1.414916   -0.933821    0.000000
 ---------------------------------------------------------------------

 SCF Done:  E(RHF) =  -279.503190905     A.U. after   14 cycles
 E2 =    -0.9433965618D+00 EUMP2 =    -0.28044658746691D+03
 E2 =    -0.9433965618D+00 EUMP2 =    -0.28044658746691D+03

 The electronic state is 1-A'.
 Alpha  occ. eigenvalues --  -20.68859 -20.68471 -20.65873 -15.81142  -1.63207
 Alpha  occ. eigenvalues --   -1.49579  -1.25342  -0.94675  -0.77399  -0.76177
 Alpha  occ. eigenvalues --   -0.71391  -0.68049  -0.62234  -0.58878  -0.48439
 Alpha  occ. eigenvalues --   -0.47059
 Alpha virt. eigenvalues --    0.02989   0.07467   0.08578   0.10172   0.13377
 Alpha virt. eigenvalues --    0.13408   0.14429   0.15477   0.17844   0.19406
 Alpha virt. eigenvalues --    0.20017   0.20637   0.22113   0.23626   0.23745

 Mulliken charges:
               1
     1  H    0.249928
     2  O   -0.202381
     3  O   -0.149327
     4  N    0.292716
     5  O   -0.190936
 Sum of Mulliken charges =  -0.00000

 Dipole moment (field-independent basis, Debye):
    X=              0.4710    Y=              1.3176    Z=             -0.0000  Tot=              1.3992
 Quadrupole moment (field-independent basis, Debye-Ang):
   XX=            -22.4171   YY=            -18.6158   ZZ=            -21.9942
   XY=              3.2892   XZ=             -0.0000   YZ=              0.0000

  Exact polarizability:  33.900   9.366  30.124  -0.000  -0.000  17.910
 Approx polarizability:  28.797   5.029  23.438  -0.000  -0.000  15.480

 ******    1 imaginary frequencies (negative Signs) ******

                      1                      2                      3
                     A"                     A"                     A'
 Frequencies --   -267.9507               191.8041               332.9332
 Red. masses --      1.1517                 9.5355                 8.7322
 Frc consts  --      0.0487                 0.2067                 0.5703
 IR Inten    --    123.9467                 1.5369                 2.7502

                      4                      5                      6
                     A'                     A'                     A'
 Frequencies --    457.2559               784.6513               968.2962
 Red. masses --     12.1860                12.6985                15.4030
 Frc consts  --      1.5012                 4.6063                 8.5089
 IR Inten    --    200.6667               171.2550                21.3219

                      7                      8                      9
                     A'                     A'                     A'
 Frequencies --   1371.9192              1740.7340              3778.6105
 Red. masses --      1.1300                13.8306                 1.0675
 Frc consts  --      1.2531                24.6919                 8.9805
 IR Inten    --    148.5022               163.5955                81.7996

 - Thermochemistry -
 -------------------
 Temperature   298.150 Kelvin.  Pressure   1.00000 Atm.
 Atom     1 has atomic number  1 and mass   1.00783

 Molecular mass:    62.99564 amu.
 Principal axes and moments of inertia in atomic units:
                           1         2         3
     Eigenvalues --    32.80131 358.50713 391.30844
           X            0.81142  -0.58447   0.00000
           Y            0.58447   0.81142   0.00000
           Z            0.00000  -0.00000   1.00000
 This molecule is an asymmetric top.
 Rotational symmetry number  1.
 Rotational temperatures (Kelvin)      2.64056     0.24160     0.22134
 Rotational constants (GHZ):          55.02039     5.03405     4.61207
    1 imaginary frequencies ignored.
 Zero-point vibrational energy      57577.5 (Joules/Mol)
                                   13.76135 (Kcal/Mol)
 Warning -- explicit consideration of   3 degrees of freedom as
           vibrations may cause significant error
 Vibrational temperatures:    275.96   479.02   657.89  1128.94  1393.16
          (Kelvin)           1973.89  2504.53  5436.58

 Zero-point correction=                           0.021930 (Hartree/Particle)
 Thermal correction to Energy=                    0.026109
 Thermal correction to Enthalpy=                  0.027054
 Thermal correction to Gibbs Free Energy=        -0.004290
 Sum of electronic and zero-point Energies=           -280.424657
 Sum of electronic and thermal Energies=              -280.420478
 Sum of electronic and thermal Enthalpies=            -280.419534
 Sum of electronic and thermal Free Energies=         -280.450878

                     E (Thermal)             CV                S
                      KCal/Mol        Cal/Mol-Kelvin    Cal/Mol-Kelvin
 Total                   16.384             12.005             65.968
 Electronic               0.000              0.000              0.000
 Translational            0.889              2.981             38.341
 Rotational               0.889              2.981             23.047
 Vibrational             14.606              6.043              4.581
 Vibration     1          0.634              1.851              2.210
 Vibration     2          0.715              1.610              1.246
 Vibration     3          0.815              1.345              0.774

                       ! Non-Optimized Parameters !

 1\1\GINC-N2125\Freq\RMP2-FC\Aug-CC-pVTZ\H1N1O3\CGAVINH\21-Feb-2022\1\\
 #p freq mp2/aug-cc-pvtz density=current\\title\\0,1\H\O,1,r1\O,2,r2,1,
 a1\N,3,r3,2,a2,1,d1,0\O,4,r4,3,a3,2,d2,0\\r1=0.96897556\r2=1.45491931\
 r3=1.45878406\r4=1.16101961\a1=97.59494903\a2=102.29752444\a3=109.0695
 5123\d1=180.\d2=180.\\Version=ES64L-G16RevB.01\State=1-A'\HF=-279.5031
 909\MP2=-280.4465875\RMSD=3.535e-09\RMSF=5.590e-03\ZeroPoint=0.0219301
 \Thermal=0.0261093\Dipole=-0.1316494,0.,-0.5345254\DipoleDeriv=0.26633
 67,0.,0.048136,0.,0.3552282,0.,0.0814993,0.,0.274439,-0.326265,0.,-0.2

 Normal termination of Gaussian 16 at Mon Feb 21 20:33:02 2022.
