 Gaussian 16, Revision B.01,
 Gaussian 16:  ES64L-G16RevB.01 20-Dec-2017

 ---------------------------------------
 #p freq mp2/aug-cc-pvtz density=current
 ---------------------------------------

 -----
 title
 -----
 Symbolic Z-matrix:
 Charge =  0 Multiplicity = 1

                         Standard orientation:
 ---------------------------------------------------------------------
 Center     Atomic      Atomic             Coordinates (Angstroms)
 Number     Number       Type             X           Y           Z
 ---------------------------------------------------------------------
      1          1           0        1.099364   -0.610842    0.000000
      2          8           0        1.312233    0.351267    0.000000
      3          8           0        0.000000    0.911288    0.000000
      4          7           0       -0.984987   -0.031662    0.000000
      5          8           0       -0.587790   -1.158496    0.000000
 ---------------------------------------------------------------------

 SCF Done:  E(RHF) =  -279.507788295     A.U. after   14 cycles
 E2 =    -0.9473397861D+00 EUMP2 =    -0.28045512808088D+03
 E2 =    -0.9473397861D+00 EUMP2 =    -0.28045512808088D+03

 The electronic state is 1-A'.
 Alpha  occ. eigenvalues --  -20.72274 -20.68314 -20.66926 -15.82386  -1.64889
 Alpha  occ. eigenvalues --   -1.50513  -1.30011  -0.95946  -0.83658  -0.76119
 Alpha  occ. eigenvalues --   -0.74407  -0.63805  -0.61812  -0.61674  -0.50481
 Alpha  occ. eigenvalues --   -0.49922
 Alpha virt. eigenvalues --    0.03499   0.06289   0.09515   0.10046   0.11971
 Alpha virt. eigenvalues --    0.12296   0.14881   0.15168   0.17743   0.18061
 Alpha virt. eigenvalues --    0.18966   0.21117   0.21664   0.24268   0.24643

 Mulliken charges:
               1
     1  H    0.278048
     2  O   -0.276710
     3  O    0.051682
     4  N    0.148042
     5  O   -0.201062
 Sum of Mulliken charges =  -0.00000

 Dipole moment (field-independent basis, Debye):
    X=              0.0931    Y=             -1.0140    Z=              0.0000  Tot=              1.0183
 Quadrupole moment (field-independent basis, Debye-Ang):
   XX=            -23.4389   YY=            -22.9032   ZZ=            -21.9046
   XY=             -2.0109   XZ=              0.0000   YZ=              0.0000

  Exact polarizability:  30.830   4.011  29.598   0.000   0.000  17.561
 Approx polarizability:  24.425   0.441  27.392  -0.000  -0.000  15.485

                      1                      2                      3
                     A"                     A'                     A"
 Frequencies --    361.1177               411.2025               527.2922
 Red. masses --      1.6072                 6.9425                 2.7488
 Frc consts  --      0.1235                 0.6916                 0.4503
 IR Inten    --     61.4922                 7.3970                27.1100

                      4                      5                      6
                     A'                     A'                     A'
 Frequencies --    775.7656               838.2206               975.7974
 Red. masses --     13.2006                12.7077                 9.5361
 Frc consts  --      4.6806                 5.2606                 5.3498
 IR Inten    --    194.6449                37.7264                14.7699

                      7                      8                      9
                     A'                     A'                     A'
 Frequencies --   1432.2963              1579.6380              3485.4297
 Red. masses --      1.2960                 6.8233                 1.0635
 Frc consts  --      1.5665                10.0313                 7.6121
 IR Inten    --     81.3166               150.5808                45.8971

 - Thermochemistry -
 -------------------
 Temperature   298.150 Kelvin.  Pressure   1.00000 Atm.
 Atom     1 has atomic number  1 and mass   1.00783

 Molecular mass:    62.99564 amu.
 Principal axes and moments of inertia in atomic units:
                           1         2         3
     Eigenvalues --    84.49950 218.90223 303.40173
           X            0.80172  -0.59770   0.00000
           Y            0.59770   0.80172   0.00000
           Z            0.00000   0.00000   1.00000
 This molecule is an asymmetric top.
 Rotational symmetry number  1.
 Rotational temperatures (Kelvin)      1.02502     0.39567     0.28548
 Rotational constants (GHZ):          21.35801     8.24451     5.94836
 Zero-point vibrational energy      62126.6 (Joules/Mol)
                                   14.84862 (Kcal/Mol)
 Warning -- explicit consideration of   3 degrees of freedom as
           vibrations may cause significant error
 Vibrational temperatures:    519.57   591.63   758.66  1116.15  1206.01
          (Kelvin)           1403.95  2060.75  2272.75  5014.76

 Zero-point correction=                           0.023663 (Hartree/Particle)
 Thermal correction to Energy=                    0.027552
 Thermal correction to Enthalpy=                  0.028496
 Thermal correction to Gibbs Free Energy=        -0.002269
 Sum of electronic and zero-point Energies=           -280.431465
 Sum of electronic and thermal Energies=              -280.427576
 Sum of electronic and thermal Enthalpies=            -280.426632
 Sum of electronic and thermal Free Energies=         -280.457397

                     E (Thermal)             CV                S
                      KCal/Mol        Cal/Mol-Kelvin    Cal/Mol-Kelvin
 Total                   17.289             11.987             64.751
 Electronic               0.000              0.000              0.000
 Translational            0.889              2.981             38.341
 Rotational               0.889              2.981             23.244
 Vibrational             15.512              6.025              3.166
 Vibration     1          0.735              1.552              1.117
 Vibration     2          0.775              1.446              0.922
 Vibration     3          0.882              1.190              0.593

                       ! Non-Optimized Parameters !

 1\1\GINC-N2218\Freq\RMP2-FC\Aug-CC-pVTZ\H1N1O3\CGAVINH\06-Mar-2022\1\\
 #p freq mp2/aug-cc-pvtz density=current\\title\\0,1\H\O,1,r1\O,2,r2,1,
 a1\N,3,r3,2,a2,1,d1,0\O,4,r4,3,a3,2,d2,0\\r1=0.98537664\r2=1.42673666\
 r3=1.36358083\r4=1.19478846\a1=100.6355057\a2=113.13777052\a3=114.3339
 2022\d1=0.\d2=0.\\Version=ES64L-G16RevB.01\State=1-A'\HF=-279.5077883\
 MP2=-280.4551281\RMSD=3.957e-09\RMSF=2.462e-03\ZeroPoint=0.0236628\The
 rmal=0.027552\Dipole=-0.1219622,0.,-0.3816039\DipoleDeriv=0.3212293,0.
 ,0.0364491,0.,0.2982815,0.,-0.0267479,0.,0.2072915,-0.5344351,0.,0.283

 Normal termination of Gaussian 16 at Sun Mar  6 19:12:32 2022.
