 Gaussian 16, Revision B.01,
 Gaussian 16:  ES64L-G16RevB.01 20-Dec-2017

 ---------------------------------------
 #p freq mp2/aug-cc-pvtz density=current
 ---------------------------------------

 -----
 title
 -----
 Symbolic Z-matrix:
 Charge =  0 Multiplicity = 1

                         Standard orientation:
 ---------------------------------------------------------------------
 Center     Atomic      Atomic             Coordinates (Angstroms)
 Number     Number       Type             X           Y           Z
 ---------------------------------------------------------------------
      1          1           0        1.084601   -0.591295   -0.000000
      2          8           0        1.316316    0.366450   -0.000000
      3          8           0       -0.000000    0.916804    0.000000
      4          7           0       -0.990595   -0.045579    0.000000
      5          8           0       -0.585121   -1.169460   -0.000000
 ---------------------------------------------------------------------

 SCF Done:  E(RHF) =  -279.506001103     A.U. after   14 cycles
 E2 =    -0.9491477436D+00 EUMP2 =    -0.28045514884675D+03
 E2 =    -0.9491477436D+00 EUMP2 =    -0.28045514884675D+03

 The electronic state is 1-A'.
 Alpha  occ. eigenvalues --  -20.71964 -20.68821 -20.66861 -15.82679  -1.64555
 Alpha  occ. eigenvalues --   -1.50605  -1.29388  -0.96033  -0.83607  -0.75953
 Alpha  occ. eigenvalues --   -0.74057  -0.63796  -0.61904  -0.61884  -0.50571
 Alpha  occ. eigenvalues --   -0.49767
 Alpha virt. eigenvalues --    0.03535   0.05959   0.09503   0.10031   0.11942
 Alpha virt. eigenvalues --    0.12261   0.14932   0.15284   0.17739   0.17984
 Alpha virt. eigenvalues --    0.18964   0.21084   0.21693   0.24231   0.24631

 Mulliken charges:
               1
     1  H    0.273482
     2  O   -0.274863
     3  O    0.038539
     4  N    0.156143
     5  O   -0.193301
 Sum of Mulliken charges =  -0.00000

 Dipole moment (field-independent basis, Debye):
    X=              0.0141    Y=             -1.0806    Z=             -0.0000  Tot=              1.0807
 Quadrupole moment (field-independent basis, Debye-Ang):
   XX=            -23.4372   YY=            -22.9482   ZZ=            -21.9274
   XY=             -1.9053   XZ=              0.0000   YZ=             -0.0000

  Exact polarizability:  30.903   4.206  29.828  -0.000   0.000  17.593
 Approx polarizability:  24.607   0.591  27.623  -0.000   0.000  15.499

                      1                      2                      3
                     A"                     A'                     A"
 Frequencies --    369.9628               397.9055               521.8354
 Red. masses --      1.5535                 7.1964                 2.9050
 Frc consts  --      0.1253                 0.6713                 0.4661
 IR Inten    --     61.2552                 7.9029                24.9542

                      4                      5                      6
                     A'                     A'                     A'
 Frequencies --    712.7907               839.8859               973.3710
 Red. masses --     13.4106                13.0324                 9.7913
 Frc consts  --      4.0144                 5.4165                 5.4657
 IR Inten    --    215.8622                31.5705                12.7000

                      7                      8                      9
                     A'                     A'                     A'
 Frequencies --   1450.6830              1575.4620              3478.2423
 Red. masses --      1.3563                 5.1898                 1.0636
 Frc consts  --      1.6817                 7.5896                 7.5813
 IR Inten    --     81.5909               150.4476                45.0738

 - Thermochemistry -
 -------------------
 Temperature   298.150 Kelvin.  Pressure   1.00000 Atm.
 Atom     1 has atomic number  1 and mass   1.00783

 Molecular mass:    62.99564 amu.
 Principal axes and moments of inertia in atomic units:
                           1         2         3
     Eigenvalues --    84.35821 222.54453 306.90274
           X            0.79530  -0.60621   0.00000
           Y            0.60621   0.79530   0.00000
           Z            0.00000  -0.00000   1.00000
 This molecule is an asymmetric top.
 Rotational symmetry number  1.
 Rotational temperatures (Kelvin)      1.02674     0.38920     0.28222
 Rotational constants (GHZ):          21.39378     8.10957     5.88050
 Zero-point vibrational energy      61728.1 (Joules/Mol)
                                   14.75338 (Kcal/Mol)
 Warning -- explicit consideration of   3 degrees of freedom as
           vibrations may cause significant error
 Vibrational temperatures:    532.29   572.50   750.80  1025.55  1208.41
          (Kelvin)           1400.46  2087.21  2266.74  5004.41

 Zero-point correction=                           0.023511 (Hartree/Particle)
 Thermal correction to Energy=                    0.027429
 Thermal correction to Enthalpy=                  0.028373
 Thermal correction to Gibbs Free Energy=        -0.002445
 Sum of electronic and zero-point Energies=           -280.431638
 Sum of electronic and thermal Energies=              -280.427720
 Sum of electronic and thermal Enthalpies=            -280.426776
 Sum of electronic and thermal Free Energies=         -280.457594

                     E (Thermal)             CV                S
                      KCal/Mol        Cal/Mol-Kelvin    Cal/Mol-Kelvin
 Total                   17.212             12.118             64.862
 Electronic               0.000              0.000              0.000
 Translational            0.889              2.981             38.341
 Rotational               0.889              2.981             23.270
 Vibrational             15.434              6.156              3.252
 Vibration     1          0.742              1.534              1.080
 Vibration     2          0.764              1.475              0.970
 Vibration     3          0.877              1.202              0.606

                       ! Non-Optimized Parameters !

 1\1\GINC-N2228\Freq\RMP2-FC\Aug-CC-pVTZ\H1N1O3\CGAVINH\06-Mar-2022\1\\
 #p freq mp2/aug-cc-pvtz density=current\\title\\0,1\H\O,1,r1\O,2,r2,1,
 a1\N,3,r3,2,a2,1,d1,0\O,4,r4,3,a3,2,d2,0\\r1=0.98537664\r2=1.42673666\
 r3=1.38110764\r4=1.19478846\a1=99.08918232\a2=113.13777052\a3=114.3339
 2022\d1=0.\d2=0.\\Version=ES64L-G16RevB.01\State=1-A'\HF=-279.5060011\
 MP2=-280.4551488\RMSD=4.481e-09\RMSF=1.462e-03\ZeroPoint=0.023511\Ther
 mal=0.0274289\Dipole=-0.1053486,0.,-0.4119089\DipoleDeriv=0.3200079,0.
 ,0.0317564,0.,0.2944449,0.,-0.0376957,0.,0.203828,-0.5259453,0.,0.2961

 Normal termination of Gaussian 16 at Sun Mar  6 19:29:50 2022.
