 Gaussian 16, Revision B.01,
 Gaussian 16:  ES64L-G16RevB.01 20-Dec-2017

 ---------------------------------------
 #p freq mp2/aug-cc-pvtz density=current
 ---------------------------------------

 -----
 title
 -----
 Symbolic Z-matrix:
 Charge =  0 Multiplicity = 1

                         Standard orientation:
 ---------------------------------------------------------------------
 Center     Atomic      Atomic             Coordinates (Angstroms)
 Number     Number       Type             X           Y           Z
 ---------------------------------------------------------------------
      1          1           0        1.099986   -0.587050    0.000000
      2          8           0        1.301547    0.377492    0.000000
      3          8           0        0.000000    0.914982    0.000000
      4          7           0       -0.986368   -0.051732    0.000000
      5          8           0       -0.575973   -1.173826    0.000000
 ---------------------------------------------------------------------

 SCF Done:  E(RHF) =  -279.507345618     A.U. after   14 cycles
 E2 =    -0.9477244564D+00 EUMP2 =    -0.28045507007412D+03
 E2 =    -0.9477244564D+00 EUMP2 =    -0.28045507007412D+03

 The electronic state is 1-A'.
 Alpha  occ. eigenvalues --  -20.71992 -20.68754 -20.66653 -15.82575  -1.64748
 Alpha  occ. eigenvalues --   -1.51153  -1.29138  -0.96141  -0.83811  -0.76029
 Alpha  occ. eigenvalues --   -0.74269  -0.63476  -0.62304  -0.62031  -0.50536
 Alpha  occ. eigenvalues --   -0.49430
 Alpha virt. eigenvalues --    0.03528   0.06017   0.09514   0.10056   0.11958
 Alpha virt. eigenvalues --    0.12297   0.14973   0.15383   0.17747   0.18007
 Alpha virt. eigenvalues --    0.18966   0.21110   0.21689   0.24637   0.25146

 Mulliken charges:
               1
     1  H    0.274741
     2  O   -0.272153
     3  O    0.043480
     4  N    0.150402
     5  O   -0.196469
 Sum of Mulliken charges =  -0.00000

 Dipole moment (field-independent basis, Debye):
    X=              0.0839    Y=             -1.0684    Z=              0.0000  Tot=              1.0717
 Quadrupole moment (field-independent basis, Debye-Ang):
   XX=            -23.3790   YY=            -22.9719   ZZ=            -21.9086
   XY=             -1.9319   XZ=              0.0000   YZ=              0.0000

  Exact polarizability:  30.613   4.248  29.869   0.000   0.000  17.568
 Approx polarizability:  24.192   0.656  27.593  -0.000  -0.000  15.487

                      1                      2                      3
                     A"                     A'                     A"
 Frequencies --    354.1227               399.8275               525.1604
 Red. masses --      1.5693                 7.0316                 2.8665
 Frc consts  --      0.1160                 0.6623                 0.4658
 IR Inten    --     62.0382                 7.9890                25.6658

                      4                      5                      6
                     A'                     A'                     A'
 Frequencies --    716.0839               866.9503               997.5463
 Red. masses --     13.3849                11.3546                10.6918
 Frc consts  --      4.0438                 5.0282                 6.2686
 IR Inten    --    221.9731                30.7422                11.8178

                      7                      8                      9
                     A'                     A'                     A'
 Frequencies --   1450.5412              1575.3334              3479.4260
 Red. masses --      1.3652                 5.2424                 1.0634
 Frc consts  --      1.6924                 7.6653                 7.5852
 IR Inten    --     79.5593               152.0475                43.6715

 - Thermochemistry -
 -------------------
 Temperature   298.150 Kelvin.  Pressure   1.00000 Atm.
 Atom     1 has atomic number  1 and mass   1.00783

 Molecular mass:    62.99564 amu.
 Principal axes and moments of inertia in atomic units:
                           1         2         3
     Eigenvalues --    83.42715 221.23680 304.66395
           X            0.78638  -0.61774   0.00000
           Y            0.61774   0.78638   0.00000
           Z            0.00000   0.00000   1.00000
 This molecule is an asymmetric top.
 Rotational symmetry number  1.
 Rotational temperatures (Kelvin)      1.03820     0.39150     0.28429
 Rotational constants (GHZ):          21.63254     8.15751     5.92371
 Zero-point vibrational energy      61996.4 (Joules/Mol)
                                   14.81750 (Kcal/Mol)
 Warning -- explicit consideration of   3 degrees of freedom as
           vibrations may cause significant error
 Vibrational temperatures:    509.50   575.26   755.59  1030.28  1247.35
          (Kelvin)           1435.25  2087.01  2266.55  5006.12

 Zero-point correction=                           0.023613 (Hartree/Particle)
 Thermal correction to Energy=                    0.027532
 Thermal correction to Enthalpy=                  0.028477
 Thermal correction to Gibbs Free Energy=        -0.002340
 Sum of electronic and zero-point Energies=           -280.431457
 Sum of electronic and thermal Energies=              -280.427538
 Sum of electronic and thermal Enthalpies=            -280.426593
 Sum of electronic and thermal Free Energies=         -280.457410

                     E (Thermal)             CV                S
                      KCal/Mol        Cal/Mol-Kelvin    Cal/Mol-Kelvin
 Total                   17.277             12.065             64.860
 Electronic               0.000              0.000              0.000
 Translational            0.889              2.981             38.341
 Rotational               0.889              2.981             23.246
 Vibrational             15.499              6.103              3.274
 Vibration     1          0.730              1.567              1.148
 Vibration     2          0.766              1.470              0.963
 Vibration     3          0.880              1.194              0.598

                       ! Non-Optimized Parameters !

 1\1\GINC-N2108\Freq\RMP2-FC\Aug-CC-pVTZ\H1N1O3\CGAVINH\06-Mar-2022\1\\
 #p freq mp2/aug-cc-pvtz density=current\\title\\0,1\H\O,1,r1\O,2,r2,1,
 a1\N,3,r3,2,a2,1,d1,0\O,4,r4,3,a3,2,d2,0\\r1=0.98537664\r2=1.4081618\r
 3=1.38110764\r4=1.19478846\a1=100.6355057\a2=113.13777052\a3=114.33392
 022\d1=0.\d2=0.\\Version=ES64L-G16RevB.01\State=1-A'\HF=-279.5073456\M
 P2=-280.4550701\RMSD=4.105e-09\RMSF=3.220e-03\ZeroPoint=0.0236132\Ther
 mal=0.0275325\Dipole=-0.118303,0.,-0.4046933\DipoleDeriv=0.3171122,0.,
 0.0386091,0.,0.2971156,0.,-0.0304564,0.,0.2018427,-0.5279802,0.,0.3015

 Normal termination of Gaussian 16 at Sun Mar  6 19:04:03 2022.
