 Gaussian 16, Revision B.01,
 Gaussian 16:  ES64L-G16RevB.01 20-Dec-2017

 ---------------------------------------
 #p freq mp2/aug-cc-pvtz density=current
 ---------------------------------------

 -----
 title
 -----
 Symbolic Z-matrix:
 Charge =  0 Multiplicity = 1

                         Standard orientation:
 ---------------------------------------------------------------------
 Center     Atomic      Atomic             Coordinates (Angstroms)
 Number     Number       Type             X           Y           Z
 ---------------------------------------------------------------------
      1          1           0        1.539524    1.691386    0.000000
      2          8           0        1.447187    0.726820    0.000000
      3          8           0        0.000000    0.673077   -0.000000
      4          7           0       -0.257595   -0.762784   -0.000000
      5          8           0       -1.414232   -0.943884   -0.000000
 ---------------------------------------------------------------------

 SCF Done:  E(RHF) =  -279.502216889     A.U. after   14 cycles
 E2 =    -0.9444979237D+00 EUMP2 =    -0.28044671481252D+03
 E2 =    -0.9444979237D+00 EUMP2 =    -0.28044671481252D+03

 The electronic state is 1-A'.
 Alpha  occ. eigenvalues --  -20.69050 -20.68418 -20.65940 -15.81270  -1.62424
 Alpha  occ. eigenvalues --   -1.49844  -1.25321  -0.94816  -0.77351  -0.75973
 Alpha  occ. eigenvalues --   -0.71242  -0.67939  -0.62110  -0.59034  -0.48401
 Alpha  occ. eigenvalues --   -0.47234
 Alpha virt. eigenvalues --    0.02964   0.07168   0.08611   0.10175   0.13395
 Alpha virt. eigenvalues --    0.13426   0.14411   0.15456   0.17824   0.19411
 Alpha virt. eigenvalues --    0.19978   0.20643   0.22154   0.23743   0.23841

 Mulliken charges:
               1
     1  H    0.249880
     2  O   -0.200806
     3  O   -0.146760
     4  N    0.291162
     5  O   -0.193476
 Sum of Mulliken charges =  -0.00000

 Dipole moment (field-independent basis, Debye):
    X=              0.5070    Y=              1.3669    Z=             -0.0000  Tot=              1.4579
 Quadrupole moment (field-independent basis, Debye-Ang):
   XX=            -22.5060   YY=            -18.5912   ZZ=            -22.0009
   XY=              3.2345   XZ=             -0.0000   YZ=              0.0000

  Exact polarizability:  33.836   9.460  30.279   0.000   0.000  17.905
 Approx polarizability:  28.812   5.110  23.536   0.000   0.000  15.511

 ******    1 imaginary frequencies (negative Signs) ******

                      1                      2                      3
                     A"                     A"                     A'
 Frequencies --   -266.8138               226.5364               340.0916
 Red. masses --      1.1378                10.6239                 8.5740
 Frc consts  --      0.0477                 0.3212                 0.5843
 IR Inten    --    124.9748                 0.7125                 5.6835

                      4                      5                      6
                     A'                     A'                     A'
 Frequencies --    453.6798               789.2730               981.4637
 Red. masses --     12.3707                12.8503                15.5556
 Frc consts  --      1.5002                 4.7165                 8.8285
 IR Inten    --    199.6454               172.7857                19.6082

                      7                      8                      9
                     A'                     A'                     A'
 Frequencies --   1378.8170              1677.6916              3778.0459
 Red. masses --      1.1340                13.1286                 1.0675
 Frc consts  --      1.2702                21.7717                 8.9774
 IR Inten    --    153.7649               139.9869                82.8561

 - Thermochemistry -
 -------------------
 Temperature   298.150 Kelvin.  Pressure   1.00000 Atm.
 Atom     1 has atomic number  1 and mass   1.00783

 Molecular mass:    62.99564 amu.
 Principal axes and moments of inertia in atomic units:
                           1         2         3
     Eigenvalues --    32.74154 359.01178 391.75332
           X            0.80768  -0.58962   0.00000
           Y            0.58962   0.80768   0.00000
           Z           -0.00000   0.00000   1.00000
 This molecule is an asymmetric top.
 Rotational symmetry number  1.
 Rotational temperatures (Kelvin)      2.64538     0.24126     0.22109
 Rotational constants (GHZ):          55.12084     5.02697     4.60683
    1 imaginary frequencies ignored.
 Zero-point vibrational energy      57573.9 (Joules/Mol)
                                   13.76048 (Kcal/Mol)
 Warning -- explicit consideration of   3 degrees of freedom as
           vibrations may cause significant error
 Vibrational temperatures:    325.94   489.32   652.74  1135.59  1412.11
          (Kelvin)           1983.81  2413.82  5435.77

 Zero-point correction=                           0.021929 (Hartree/Particle)
 Thermal correction to Energy=                    0.026046
 Thermal correction to Enthalpy=                  0.026990
 Thermal correction to Gibbs Free Energy=        -0.004194
 Sum of electronic and zero-point Energies=           -280.424786
 Sum of electronic and thermal Energies=              -280.420669
 Sum of electronic and thermal Enthalpies=            -280.419724
 Sum of electronic and thermal Free Energies=         -280.450909

                     E (Thermal)             CV                S
                      KCal/Mol        Cal/Mol-Kelvin    Cal/Mol-Kelvin
 Total                   16.344             11.930             65.633
 Electronic               0.000              0.000              0.000
 Translational            0.889              2.981             38.341
 Rotational               0.889              2.981             23.047
 Vibrational             14.567              5.969              4.245
 Vibration     1          0.650              1.801              1.906
 Vibration     2          0.720              1.595              1.212
 Vibration     3          0.812              1.353              0.785

                       ! Non-Optimized Parameters !

 1\1\GINC-N2108\Freq\RMP2-FC\Aug-CC-pVTZ\H1N1O3\CGAVINH\21-Feb-2022\1\\
 #p freq mp2/aug-cc-pvtz density=current\\title\\0,1\H\O,1,r1\O,2,r2,1,
 a1\N,3,r3,2,a2,1,d1,0\O,4,r4,3,a3,2,d2,0\\r1=0.96897556\r2=1.44818487\
 r3=1.45878406\r4=1.17072885\a1=97.59494903\a2=102.29752444\a3=109.0695
 5123\d1=180.\d2=180.\\Version=ES64L-G16RevB.01\State=1-A'\HF=-279.5022
 169\MP2=-280.4467148\RMSD=3.727e-09\RMSF=1.149e-03\ZeroPoint=0.0219287
 \Thermal=0.0260462\Dipole=-0.147316,0.,-0.5543269\DipoleDeriv=0.266582
 4,0.,0.0486797,0.,0.3558442,0.,0.0811131,0.,0.2764317,-0.328539,0.,-0.

 Normal termination of Gaussian 16 at Mon Feb 21 20:15:10 2022.
