 Gaussian 16, Revision B.01,
 Gaussian 16:  ES64L-G16RevB.01 20-Dec-2017

 ---------------------------------------
 #p freq mp2/aug-cc-pvtz density=current
 ---------------------------------------

 -----
 title
 -----
 Symbolic Z-matrix:
 Charge =  0 Multiplicity = 1

                         Standard orientation:
 ---------------------------------------------------------------------
 Center     Atomic      Atomic             Coordinates (Angstroms)
 Number     Number       Type             X           Y           Z
 ---------------------------------------------------------------------
      1          1           0        1.077104   -0.611411    0.000000
      2          8           0        1.303947    0.347500    0.000000
      3          8           0        0.000000    0.926551   -0.000000
      4          7           0       -0.986217   -0.040317   -0.000000
      5          8           0       -0.575645   -1.162347   -0.000000
 ---------------------------------------------------------------------

 SCF Done:  E(RHF) =  -279.505887510     A.U. after   14 cycles
 E2 =    -0.9491552517D+00 EUMP2 =    -0.28045504276142D+03
 E2 =    -0.9491552517D+00 EUMP2 =    -0.28045504276142D+03

 The electronic state is 1-A'.
 Alpha  occ. eigenvalues --  -20.72161 -20.68817 -20.66612 -15.82603  -1.64651
 Alpha  occ. eigenvalues --   -1.50492  -1.29371  -0.96060  -0.83785  -0.75971
 Alpha  occ. eigenvalues --   -0.74118  -0.63562  -0.61958  -0.61784  -0.50572
 Alpha  occ. eigenvalues --   -0.49795
 Alpha virt. eigenvalues --    0.03536   0.05955   0.09500   0.09988   0.11969
 Alpha virt. eigenvalues --    0.12278   0.14989   0.15295   0.17737   0.17991
 Alpha virt. eigenvalues --    0.18960   0.21097   0.21672   0.24429   0.24618

 Mulliken charges:
               1
     1  H    0.272718
     2  O   -0.276194
     3  O    0.037580
     4  N    0.156987
     5  O   -0.191092
 Sum of Mulliken charges =  -0.00000

 Dipole moment (field-independent basis, Debye):
    X=              0.0034    Y=             -1.0799    Z=              0.0000  Tot=              1.0799
 Quadrupole moment (field-independent basis, Debye-Ang):
   XX=            -23.5012   YY=            -22.8377   ZZ=            -21.9277
   XY=             -1.9402   XZ=             -0.0000   YZ=              0.0000

  Exact polarizability:  30.633   4.002  29.752   0.000  -0.000  17.590
 Approx polarizability:  24.380   0.390  27.678   0.000  -0.000  15.497

                      1                      2                      3
                     A"                     A'                     A"
 Frequencies --    351.4566               430.3954               530.5329
 Red. masses --      1.5632                 7.1573                 2.8732
 Frc consts  --      0.1138                 0.7812                 0.4765
 IR Inten    --     62.0588                 7.8753                24.9306

                      4                      5                      6
                     A'                     A'                     A'
 Frequencies --    709.0792               839.2571               970.4071
 Red. masses --     13.4905                12.5954                10.0307
 Frc consts  --      3.9964                 5.2270                 5.5653
 IR Inten    --    212.6748                33.3264                12.5508

                      7                      8                      9
                     A'                     A'                     A'
 Frequencies --   1438.6786              1576.6964              3475.5743
 Red. masses --      1.3388                 5.4902                 1.0635
 Frc consts  --      1.6326                 8.0415                 7.5690
 IR Inten    --     82.2901               147.3849                48.4135

 - Thermochemistry -
 -------------------
 Temperature   298.150 Kelvin.  Pressure   1.00000 Atm.
 Atom     1 has atomic number  1 and mass   1.00783

 Molecular mass:    62.99564 amu.
 Principal axes and moments of inertia in atomic units:
                           1         2         3
     Eigenvalues --    85.63199 217.67015 303.30215
           X            0.79361  -0.60843   0.00000
           Y            0.60843   0.79361   0.00000
           Z           -0.00000   0.00000   1.00000
 This molecule is an asymmetric top.
 Rotational symmetry number  1.
 Rotational temperatures (Kelvin)      1.01147     0.39791     0.28557
 Rotational constants (GHZ):          21.07555     8.29117     5.95031
 Zero-point vibrational energy      61739.7 (Joules/Mol)
                                   14.75615 (Kcal/Mol)
 Warning -- explicit consideration of   3 degrees of freedom as
           vibrations may cause significant error
 Vibrational temperatures:    505.67   619.24   763.32  1020.21  1207.50
          (Kelvin)           1396.20  2069.94  2268.51  5000.58

 Zero-point correction=                           0.023515 (Hartree/Particle)
 Thermal correction to Energy=                    0.027419
 Thermal correction to Enthalpy=                  0.028363
 Thermal correction to Gibbs Free Energy=        -0.002424
 Sum of electronic and zero-point Energies=           -280.431527
 Sum of electronic and thermal Energies=              -280.427624
 Sum of electronic and thermal Enthalpies=            -280.426679
 Sum of electronic and thermal Free Energies=         -280.457467

                     E (Thermal)             CV                S
                      KCal/Mol        Cal/Mol-Kelvin    Cal/Mol-Kelvin
 Total                   17.206             12.081             64.797
 Electronic               0.000              0.000              0.000
 Translational            0.889              2.981             38.341
 Rotational               0.889              2.981             23.251
 Vibrational             15.428              6.120              3.205
 Vibration     1          0.728              1.572              1.160
 Vibration     2          0.792              1.404              0.857
 Vibration     3          0.885              1.182              0.586

                       ! Non-Optimized Parameters !

 1\1\GINC-N2109\Freq\RMP2-FC\Aug-CC-pVTZ\H1N1O3\CGAVINH\06-Mar-2022\1\\
 #p freq mp2/aug-cc-pvtz density=current\\title\\0,1\H\O,1,r1\O,2,r2,1,
 a1\N,3,r3,2,a2,1,d1,0\O,4,r4,3,a3,2,d2,0\\r1=0.98537664\r2=1.42673666\
 r3=1.38110764\r4=1.19478846\a1=100.6355057\a2=111.62269418\a3=114.3339
 2022\d1=0.\d2=0.\\Version=ES64L-G16RevB.01\State=1-A'\HF=-279.5058875\
 MP2=-280.4550428\RMSD=4.728e-09\RMSF=2.759e-03\ZeroPoint=0.0235154\The
 rmal=0.0274191\Dipole=-0.0991077,0.,-0.4131498\DipoleDeriv=0.3209228,0
 .,0.0318057,0.,0.2955009,0.,-0.0348235,0.,0.2119504,-0.5155743,0.,0.28

 Normal termination of Gaussian 16 at Sun Mar  6 19:39:54 2022.
