 Gaussian 16, Revision B.01,
 Gaussian 16:  ES64L-G16RevB.01 20-Dec-2017

 ---------------------------------------
 #p freq mp2/aug-cc-pvtz density=current
 ---------------------------------------

 -----
 title
 -----
 Symbolic Z-matrix:
 Charge =  0 Multiplicity = 1

                         Standard orientation:
 ---------------------------------------------------------------------
 Center     Atomic      Atomic             Coordinates (Angstroms)
 Number     Number       Type             X           Y           Z
 ---------------------------------------------------------------------
      1          1           0       -0.549514   -1.134791    0.123217
      2          8           0       -1.276661   -0.484114   -0.014056
      3          8           0       -0.542359    0.739021    0.003801
      4          7           0        0.825841    0.550649    0.004791
      5          8           0        1.165099   -0.594875   -0.009340
 ---------------------------------------------------------------------

 SCF Done:  E(RHF) =  -279.506315077     A.U. after   16 cycles
 E2 =    -0.9487039842D+00 EUMP2 =    -0.28045501906108D+03
 E2 =    -0.9487039842D+00 EUMP2 =    -0.28045501906108D+03

 The electronic state is 1-A.
 Alpha  occ. eigenvalues --  -20.71962 -20.68674 -20.66863 -15.82557  -1.64380
 Alpha  occ. eigenvalues --   -1.50505  -1.29367  -0.96009  -0.83365  -0.75862
 Alpha  occ. eigenvalues --   -0.74016  -0.63872  -0.61930  -0.61590  -0.50438
 Alpha  occ. eigenvalues --   -0.49766
 Alpha virt. eigenvalues --    0.03492   0.06059   0.09512   0.10043   0.11877
 Alpha virt. eigenvalues --    0.12266   0.15014   0.15180   0.17643   0.18144
 Alpha virt. eigenvalues --    0.18885   0.21222   0.21700   0.24217   0.24619

 Mulliken charges:
               1
     1  H    0.278828
     2  O   -0.273331
     3  O    0.036482
     4  N    0.154873
     5  O   -0.196852
 Sum of Mulliken charges =  -0.00000

 Dipole moment (field-independent basis, Debye):
    X=              0.5886    Y=             -0.9134    Z=              0.1962  Tot=              1.1042
 Quadrupole moment (field-independent basis, Debye-Ang):
   XX=            -25.1040   YY=            -21.2336   ZZ=            -21.8928
   XY=              0.4063   XZ=             -0.0934   YZ=             -0.3501

  Exact polarizability:  34.455  -0.732  26.286  -0.012  -0.075  17.648
 Approx polarizability:  26.094  -1.629  26.085   0.103  -0.066  15.553

                      1                      2                      3
                      A                      A                      A
 Frequencies --    322.4251               402.4155               515.0116
 Red. masses --      1.4698                 6.4677                 3.5203
 Frc consts  --      0.0900                 0.6171                 0.5501
 IR Inten    --     65.0342                 9.7985                19.7622

                      4                      5                      6
                      A                      A                      A
 Frequencies --    711.7068               837.2432               970.9641
 Red. masses --     12.3567                12.3796                 9.8539
 Frc consts  --      3.6877                 5.1128                 5.4735
 IR Inten    --    218.3626                32.2392                12.6439

                      7                      8                      9
                      A                      A                      A
 Frequencies --   1439.0054              1569.1588              3491.3679
 Red. masses --      1.2981                 6.4671                 1.0639
 Frc consts  --      1.5837                 9.3820                 7.6406
 IR Inten    --     79.0023               148.9151                40.5534

 - Thermochemistry -
 -------------------
 Temperature   298.150 Kelvin.  Pressure   1.00000 Atm.
 Atom     1 has atomic number  1 and mass   1.00783

 Molecular mass:    62.99564 amu.
 Principal axes and moments of inertia in atomic units:
                           1         2         3
     Eigenvalues --    84.55589 222.71339 307.13179
           X            0.99987   0.01614  -0.00115
           Y           -0.01615   0.99985  -0.00599
           Z            0.00106   0.00600   0.99998
 This molecule is an asymmetric top.
 Rotational symmetry number  1.
 Rotational temperatures (Kelvin)      1.02434     0.38890     0.28201
 Rotational constants (GHZ):          21.34377     8.10342     5.87611
 Zero-point vibrational energy      61364.2 (Joules/Mol)
                                   14.66640 (Kcal/Mol)
 Warning -- explicit consideration of   3 degrees of freedom as
           vibrations may cause significant error
 Vibrational temperatures:    463.90   578.99   740.99  1023.99  1204.61
          (Kelvin)           1397.00  2070.41  2257.67  5023.30

 Zero-point correction=                           0.023372 (Hartree/Particle)
 Thermal correction to Energy=                    0.027346
 Thermal correction to Enthalpy=                  0.028290
 Thermal correction to Gibbs Free Energy=        -0.002636
 Sum of electronic and zero-point Energies=           -280.431647
 Sum of electronic and thermal Energies=              -280.427673
 Sum of electronic and thermal Enthalpies=            -280.426729
 Sum of electronic and thermal Free Energies=         -280.457655

                     E (Thermal)             CV                S
                      KCal/Mol        Cal/Mol-Kelvin    Cal/Mol-Kelvin
 Total                   17.160             12.233             65.088
 Electronic               0.000              0.000              0.000
 Translational            0.889              2.981             38.341
 Rotational               0.889              2.981             23.274
 Vibrational             15.382              6.272              3.474
 Vibration     1          0.707              1.631              1.298
 Vibration     2          0.768              1.465              0.954
 Vibration     3          0.870              1.217              0.622

                       ! Non-Optimized Parameters !

 1\1\GINC-N2095\Freq\RMP2-FC\Aug-CC-pVTZ\H1N1O3\CGAVINH\06-Mar-2022\1\\
 #p freq mp2/aug-cc-pvtz density=current\\title\\0,1\H\O,1,r1\O,2,r2,1,
 a1\N,3,r3,2,a2,1,d1,0\O,4,r4,3,a3,2,d2,0\\r1=0.98537664\r2=1.42673666\
 r3=1.38110764\r4=1.19478846\a1=100.6355057\a2=113.13777052\a3=114.3339
 2022\d1=8.54732425\d2=0.\\Version=ES64L-G16RevB.01\State=1-A\HF=-279.5
 063151\MP2=-280.4550191\RMSD=6.902e-09\RMSF=9.478e-04\ZeroPoint=0.0233
 724\Thermal=0.0273456\Dipole=-0.1125603,-0.0234428,-0.418931\DipoleDer
 iv=0.3129175,0.0139025,0.0413639,0.0193474,0.3002255,0.0050257,-0.0186

 Normal termination of Gaussian 16 at Sun Mar  6 19:53:33 2022.
