 Gaussian 16, Revision B.01,
 Gaussian 16:  ES64L-G16RevB.01 20-Dec-2017

 ---------------------------------------
 #p freq mp2/aug-cc-pvtz density=current
 ---------------------------------------

 -----
 title
 -----
 Symbolic Z-matrix:
 Charge =  0 Multiplicity = 1

                         Standard orientation:
 ---------------------------------------------------------------------
 Center     Atomic      Atomic             Coordinates (Angstroms)
 Number     Number       Type             X           Y           Z
 ---------------------------------------------------------------------
      1          1           0        1.120480   -0.593072    0.000000
      2          8           0        1.319913    0.371912    0.000000
      3          8           0       -0.000000    0.913583   -0.000000
      4          7           0       -0.993249   -0.046060   -0.000000
      5          8           0       -0.590880   -1.171058    0.000000
 ---------------------------------------------------------------------

 SCF Done:  E(RHF) =  -279.506515698     A.U. after   14 cycles
 E2 =    -0.9487044779D+00 EUMP2 =    -0.28045522017572D+03
 E2 =    -0.9487044779D+00 EUMP2 =    -0.28045522017572D+03

 The electronic state is 1-A'.
 Alpha  occ. eigenvalues --  -20.71915 -20.68695 -20.66901 -15.82604  -1.64355
 Alpha  occ. eigenvalues --   -1.50522  -1.29380  -0.96026  -0.83367  -0.75865
 Alpha  occ. eigenvalues --   -0.73956  -0.63816  -0.61857  -0.61822  -0.50435
 Alpha  occ. eigenvalues --   -0.49735
 Alpha virt. eigenvalues --    0.03496   0.06049   0.09515   0.10057   0.11973
 Alpha virt. eigenvalues --    0.12254   0.14907   0.15176   0.17758   0.18048
 Alpha virt. eigenvalues --    0.18985   0.21103   0.21670   0.24184   0.24642

 Mulliken charges:
               1
     1  H    0.279398
     2  O   -0.273484
     3  O    0.038030
     4  N    0.153044
     5  O   -0.196988
 Sum of Mulliken charges =  -0.00000

 Dipole moment (field-independent basis, Debye):
    X=              0.0687    Y=             -1.0990    Z=              0.0000  Tot=              1.1011
 Quadrupole moment (field-independent basis, Debye-Ang):
   XX=            -23.3348   YY=            -22.9788   ZZ=            -21.9352
   XY=             -1.9861   XZ=             -0.0000   YZ=              0.0000

  Exact polarizability:  31.025   4.194  29.893   0.000  -0.000  17.629
 Approx polarizability:  24.626   0.566  27.654   0.000  -0.000  15.521

                      1                      2                      3
                     A"                     A'                     A"
 Frequencies --    354.0821               385.9310               521.0461
 Red. masses --      1.5528                 7.0341                 2.9299
 Frc consts  --      0.1147                 0.6173                 0.4687
 IR Inten    --     63.1465                 7.7465                25.6231

                      4                      5                      6
                     A'                     A'                     A'
 Frequencies --    712.2668               836.1091               971.1190
 Red. masses --     13.2875                12.3047                 9.6752
 Frc consts  --      3.9717                 5.0681                 5.3759
 IR Inten    --    218.8586                29.7828                12.8534

                      7                      8                      9
                     A'                     A'                     A'
 Frequencies --   1432.4726              1568.4067              3491.3321
 Red. masses --      1.2965                 6.7353                 1.0638
 Frc consts  --      1.5675                 9.7617                 7.6403
 IR Inten    --     79.0950               151.4743                40.9786

 - Thermochemistry -
 -------------------
 Temperature   298.150 Kelvin.  Pressure   1.00000 Atm.
 Atom     1 has atomic number  1 and mass   1.00783

 Molecular mass:    62.99564 amu.
 Principal axes and moments of inertia in atomic units:
                           1         2         3
     Eigenvalues --    84.12956 224.36200 308.49156
           X            0.79712  -0.60382   0.00000
           Y            0.60382   0.79712   0.00000
           Z            0.00000  -0.00000   1.00000
 This molecule is an asymmetric top.
 Rotational symmetry number  1.
 Rotational temperatures (Kelvin)      1.02953     0.38605     0.28077
 Rotational constants (GHZ):          21.45193     8.04388     5.85021
 Zero-point vibrational energy      61444.8 (Joules/Mol)
                                   14.68566 (Kcal/Mol)
 Warning -- explicit consideration of   3 degrees of freedom as
           vibrations may cause significant error
 Vibrational temperatures:    509.45   555.27   749.67  1024.79  1202.97
          (Kelvin)           1397.22  2061.01  2256.59  5023.25

 Zero-point correction=                           0.023403 (Hartree/Particle)
 Thermal correction to Energy=                    0.027353
 Thermal correction to Enthalpy=                  0.028297
 Thermal correction to Gibbs Free Energy=        -0.002584
 Sum of electronic and zero-point Energies=           -280.431817
 Sum of electronic and thermal Energies=              -280.427868
 Sum of electronic and thermal Enthalpies=            -280.426923
 Sum of electronic and thermal Free Energies=         -280.457804

                     E (Thermal)             CV                S
                      KCal/Mol        Cal/Mol-Kelvin    Cal/Mol-Kelvin
 Total                   17.164             12.195             64.994
 Electronic               0.000              0.000              0.000
 Translational            0.889              2.981             38.341
 Rotational               0.889              2.981             23.281
 Vibrational             15.387              6.233              3.373
 Vibration     1          0.730              1.567              1.148
 Vibration     2          0.755              1.500              1.016
 Vibration     3          0.876              1.203              0.608

                       ! Non-Optimized Parameters !

 1\1\GINC-N2398\Freq\RMP2-FC\Aug-CC-pVTZ\H1N1O3\CGAVINH\06-Mar-2022\1\\
 #p freq mp2/aug-cc-pvtz density=current\\title\\0,1\H\O,1,r1\O,2,r2,1,
 a1\N,3,r3,2,a2,1,d1,0\O,4,r4,3,a3,2,d2,0\\r1=0.98537664\r2=1.42673666\
 r3=1.38110764\r4=1.19478846\a1=100.6355057\a2=113.6734309\a3=114.33392
 022\d1=0.\d2=0.\\Version=ES64L-G16RevB.01\State=1-A'\HF=-279.5065157\M
 P2=-280.4552202\RMSD=4.285e-09\RMSF=8.200e-04\ZeroPoint=0.0234031\Ther
 mal=0.0273525\Dipole=-0.1139924,0.,-0.4179508\DipoleDeriv=0.3154705,0.
 ,0.0398922,0.,0.2989604,0.,-0.0209441,0.,0.1959058,-0.5329293,0.,0.280

 Normal termination of Gaussian 16 at Sun Mar  6 19:31:59 2022.
