 Gaussian 16, Revision B.01,
 Gaussian 16:  ES64L-G16RevB.01 20-Dec-2017

 ---------------------------------------
 #p freq mp2/aug-cc-pvtz density=current
 ---------------------------------------

 -----
 title
 -----
 Symbolic Z-matrix:
 Charge =  0 Multiplicity = 1

                         Standard orientation:
 ---------------------------------------------------------------------
 Center     Atomic      Atomic             Coordinates (Angstroms)
 Number     Number       Type             X           Y           Z
 ---------------------------------------------------------------------
      1          1           0        1.120103   -0.611191    0.000000
      2          8           0        1.332770    0.350963   -0.000000
      3          8           0       -0.000000    0.919420   -0.000000
      4          7           0       -0.997448   -0.035858    0.000000
      5          8           0       -0.600016   -1.162609    0.000000
 ---------------------------------------------------------------------

 SCF Done:  E(RHF) =  -279.504833136     A.U. after   14 cycles
 E2 =    -0.9501946613D+00 EUMP2 =    -0.28045502779706D+03
 E2 =    -0.9501946613D+00 EUMP2 =    -0.28045502779706D+03

 The electronic state is 1-A'.
 Alpha  occ. eigenvalues --  -20.71968 -20.68691 -20.67040 -15.82630  -1.64096
 Alpha  occ. eigenvalues --   -1.49773  -1.29659  -0.95919  -0.83072  -0.75739
 Alpha  occ. eigenvalues --   -0.73698  -0.64053  -0.61615  -0.61350  -0.50389
 Alpha  occ. eigenvalues --   -0.50116
 Alpha virt. eigenvalues --    0.03480   0.06037   0.09505   0.10006   0.11989
 Alpha virt. eigenvalues --    0.12207   0.14767   0.15070   0.17759   0.18066
 Alpha virt. eigenvalues --    0.18991   0.21087   0.21648   0.23233   0.24632

 Mulliken charges:
               1
     1  H    0.281470
     2  O   -0.276845
     3  O    0.031908
     4  N    0.158042
     5  O   -0.194575
 Sum of Mulliken charges =  -0.00000

 Dipole moment (field-independent basis, Debye):
    X=              0.0134    Y=             -1.1218    Z=              0.0000  Tot=              1.1219
 Quadrupole moment (field-independent basis, Debye-Ang):
   XX=            -23.3802   YY=            -22.9038   ZZ=            -21.9627
   XY=             -2.0228   XZ=              0.0000   YZ=              0.0000

  Exact polarizability:  31.313   4.025  29.854  -0.000  -0.000  17.683
 Approx polarizability:  25.036   0.351  27.752  -0.000  -0.000  15.548

                      1                      2                      3
                     A"                     A'                     A"
 Frequencies --    352.8636               393.3088               521.4138
 Red. masses --      1.5388                 7.0901                 2.9765
 Frc consts  --      0.1129                 0.6462                 0.4768
 IR Inten    --     63.8207                 7.4646                25.1284

                      4                      5                      6
                     A'                     A'                     A'
 Frequencies --    704.2264               794.6305               948.8909
 Red. masses --     13.2430                13.4844                 9.0216
 Frc consts  --      3.8696                 5.0166                 4.7859
 IR Inten    --    206.2899                36.1420                13.7138

                      7                      8                      9
                     A'                     A'                     A'
 Frequencies --   1412.9062              1565.7011              3496.7137
 Red. masses --      1.2618                 7.8210                 1.0641
 Frc consts  --      1.4842                11.2962                 7.6659
 IR Inten    --     81.2312               147.9701                41.4787

 - Thermochemistry -
 -------------------
 Temperature   298.150 Kelvin.  Pressure   1.00000 Atm.
 Atom     1 has atomic number  1 and mass   1.00783

 Molecular mass:    62.99564 amu.
 Principal axes and moments of inertia in atomic units:
                           1         2         3
     Eigenvalues --    85.82971 224.30197 310.13168
           X            0.80793  -0.58927   0.00000
           Y            0.58927   0.80793   0.00000
           Z            0.00000  -0.00000   1.00000
 This molecule is an asymmetric top.
 Rotational symmetry number  1.
 Rotational temperatures (Kelvin)      1.00914     0.38615     0.27928
 Rotational constants (GHZ):          21.02700     8.04603     5.81927
 Zero-point vibrational energy      60953.7 (Joules/Mol)
                                   14.56827 (Kcal/Mol)
 Warning -- explicit consideration of   3 degrees of freedom as
           vibrations may cause significant error
 Vibrational temperatures:    507.69   565.88   750.20  1013.22  1143.30
          (Kelvin)           1365.24  2032.86  2252.69  5030.99

 Zero-point correction=                           0.023216 (Hartree/Particle)
 Thermal correction to Energy=                    0.027178
 Thermal correction to Enthalpy=                  0.028122
 Thermal correction to Gibbs Free Energy=        -0.002784
 Sum of electronic and zero-point Energies=           -280.431812
 Sum of electronic and thermal Energies=              -280.427850
 Sum of electronic and thermal Enthalpies=            -280.426906
 Sum of electronic and thermal Free Energies=         -280.457812

                     E (Thermal)             CV                S
                      KCal/Mol        Cal/Mol-Kelvin    Cal/Mol-Kelvin
 Total                   17.054             12.296             65.047
 Electronic               0.000              0.000              0.000
 Translational            0.889              2.981             38.341
 Rotational               0.889              2.981             23.305
 Vibrational             15.277              6.335              3.401
 Vibration     1          0.729              1.569              1.153
 Vibration     2          0.761              1.484              0.988
 Vibration     3          0.876              1.203              0.607

                       ! Non-Optimized Parameters !

 1\1\GINC-N2095\Freq\RMP2-FC\Aug-CC-pVTZ\H1N1O3\CGAVINH\06-Mar-2022\1\\
 #p freq mp2/aug-cc-pvtz density=current\\title\\0,1\H\O,1,r1\O,2,r2,1,
 a1\N,3,r3,2,a2,1,d1,0\O,4,r4,3,a3,2,d2,0\\r1=0.98537664\r2=1.44893786\
 r3=1.38110764\r4=1.19478846\a1=100.6355057\a2=113.13777052\a3=114.3339
 2022\d1=0.\d2=0.\\Version=ES64L-G16RevB.01\State=1-A'\HF=-279.5048331\
 MP2=-280.4550278\RMSD=4.852e-09\RMSF=3.269e-03\ZeroPoint=0.023216\Ther
 mal=0.0271779\Dipole=-0.1003973,0.,-0.4298195\DipoleDeriv=0.3166865,0.
 ,0.0370643,0.,0.2990561,0.,-0.0174205,0.,0.1970441,-0.5329726,0.,0.260

 Normal termination of Gaussian 16 at Sun Mar  6 18:59:56 2022.
