 Gaussian 16, Revision B.01,
 Gaussian 16:  ES64L-G16RevB.01 20-Dec-2017

 ---------------------------------------
 #p freq mp2/aug-cc-pvtz density=current
 ---------------------------------------

 -----
 title
 -----
 Symbolic Z-matrix:
 Charge =  0 Multiplicity = 1

                         Standard orientation:
 ---------------------------------------------------------------------
 Center     Atomic      Atomic             Coordinates (Angstroms)
 Number     Number       Type             X           Y           Z
 ---------------------------------------------------------------------
      1          1           0        1.547575    1.672888    0.000000
      2          8           0        1.454060    0.723478    0.000000
      3          8           0       -0.000000    0.673475    0.000000
      4          7           0       -0.261535   -0.761674   -0.000000
      5          8           0       -1.418664   -0.939599   -0.000000
 ---------------------------------------------------------------------

 SCF Done:  E(RHF) =  -279.502189197     A.U. after   14 cycles
 E2 =    -0.9443334044D+00 EUMP2 =    -0.28044652260119D+03
 E2 =    -0.9443334044D+00 EUMP2 =    -0.28044652260119D+03

 The electronic state is 1-A'.
 Alpha  occ. eigenvalues --  -20.69129 -20.68459 -20.65879 -15.81315  -1.62438
 Alpha  occ. eigenvalues --   -1.49764  -1.25739  -0.94842  -0.77409  -0.76036
 Alpha  occ. eigenvalues --   -0.71215  -0.68163  -0.62091  -0.59015  -0.48574
 Alpha  occ. eigenvalues --   -0.47291
 Alpha virt. eigenvalues --    0.02991   0.07144   0.08588   0.10168   0.13384
 Alpha virt. eigenvalues --    0.13392   0.14467   0.15510   0.17804   0.19413
 Alpha virt. eigenvalues --    0.19976   0.20637   0.22076   0.23500   0.23724

 Mulliken charges:
               1
     1  H    0.237279
     2  O   -0.188646
     3  O   -0.148116
     4  N    0.292755
     5  O   -0.193271
 Sum of Mulliken charges =  -0.00000

 Dipole moment (field-independent basis, Debye):
    X=              0.5002    Y=              1.3416    Z=              0.0000  Tot=              1.4318
 Quadrupole moment (field-independent basis, Debye-Ang):
   XX=            -22.4624   YY=            -18.6735   ZZ=            -21.9914
   XY=              3.2263   XZ=              0.0000   YZ=             -0.0000

  Exact polarizability:  33.932   9.402  30.047   0.000   0.000  17.891
 Approx polarizability:  28.967   5.086  23.367  -0.000   0.000  15.498

 ******    1 imaginary frequencies (negative Signs) ******

                      1                      2                      3
                     A"                     A"                     A'
 Frequencies --   -544.4723               228.2220               324.7034
 Red. masses --      1.1193                12.3415                 7.9014
 Frc consts  --      0.1955                 0.3787                 0.4908
 IR Inten    --    127.0786                 0.0813                 5.8729

                      4                      5                      6
                     A'                     A'                     A'
 Frequencies --    451.9055               779.0107               966.1294
 Red. masses --     12.2982                12.0975                15.6818
 Frc consts  --      1.4797                 4.3255                 8.6242
 IR Inten    --    198.7206               158.5870                26.5976

                      7                      8                      9
                     A'                     A'                     A'
 Frequencies --   1319.0455              1677.0253              3976.8384
 Red. masses --      1.1497                13.5222                 1.0675
 Frc consts  --      1.1785                22.4066                 9.9472
 IR Inten    --    155.9327               143.2265                84.3564

 - Thermochemistry -
 -------------------
 Temperature   298.150 Kelvin.  Pressure   1.00000 Atm.
 Atom     1 has atomic number  1 and mass   1.00783

 Molecular mass:    62.99564 amu.
 Principal axes and moments of inertia in atomic units:
                           1         2         3
     Eigenvalues --    32.80314 359.98417 392.78730
           X            0.81031  -0.58600   0.00000
           Y            0.58600   0.81031   0.00000
           Z            0.00000  -0.00000   1.00000
 This molecule is an asymmetric top.
 Rotational symmetry number  1.
 Rotational temperatures (Kelvin)      2.64042     0.24060     0.22051
 Rotational constants (GHZ):          55.01733     5.01339     4.59470
    1 imaginary frequencies ignored.
 Zero-point vibrational energy      58155.7 (Joules/Mol)
                                   13.89956 (Kcal/Mol)
 Warning -- explicit consideration of   3 degrees of freedom as
           vibrations may cause significant error
 Vibrational temperatures:    328.36   467.18   650.19  1120.82  1390.04
          (Kelvin)           1897.81  2412.87  5721.78

 Zero-point correction=                           0.022150 (Hartree/Particle)
 Thermal correction to Energy=                    0.026292
 Thermal correction to Enthalpy=                  0.027237
 Thermal correction to Gibbs Free Energy=        -0.003993
 Sum of electronic and zero-point Energies=           -280.424372
 Sum of electronic and thermal Energies=              -280.420230
 Sum of electronic and thermal Enthalpies=            -280.419286
 Sum of electronic and thermal Free Energies=         -280.450515

                     E (Thermal)             CV                S
                      KCal/Mol        Cal/Mol-Kelvin    Cal/Mol-Kelvin
 Total                   16.499             12.023             65.727
 Electronic               0.000              0.000              0.000
 Translational            0.889              2.981             38.341
 Rotational               0.889              2.981             23.055
 Vibrational             14.721              6.061              4.332
 Vibration     1          0.651              1.798              1.893
 Vibration     2          0.709              1.626              1.286
 Vibration     3          0.811              1.357              0.790

                       ! Non-Optimized Parameters !

 1\1\GINC-N2128\Freq\RMP2-FC\Aug-CC-pVTZ\H1N1O3\CGAVINH\21-Feb-2022\1\\
 #p freq mp2/aug-cc-pvtz density=current\\title\\0,1\H\O,1,r1\O,2,r2,1,
 a1\N,3,r3,2,a2,1,d1,0\O,4,r4,3,a3,2,d2,0\\r1=0.95400487\r2=1.45491931\
 r3=1.45878406\r4=1.17072885\a1=97.59494903\a2=102.29752444\a3=109.0695
 5123\d1=180.\d2=180.\\Version=ES64L-G16RevB.01\State=1-A'\HF=-279.5021
 892\MP2=-280.4465226\RMSD=3.787e-09\RMSF=5.576e-03\ZeroPoint=0.0221504
 \Thermal=0.0262924\Dipole=-0.1441233,0.,-0.5445741\DipoleDeriv=0.26449
 03,0.,0.0486926,0.,0.3576606,0.,0.085086,0.,0.277587,-0.3280891,0.,-0.

 Normal termination of Gaussian 16 at Mon Feb 21 20:07:32 2022.
