 Gaussian 16, Revision B.01,
 Gaussian 16:  ES64L-G16RevB.01 20-Dec-2017

 ---------------------------------------
 #p freq mp2/aug-cc-pvtz density=current
 ---------------------------------------

 -----
 title
 -----
 Symbolic Z-matrix:
 Charge =  0 Multiplicity = 1

                         Standard orientation:
 ---------------------------------------------------------------------
 Center     Atomic      Atomic             Coordinates (Angstroms)
 Number     Number       Type             X           Y           Z
 ---------------------------------------------------------------------
      1          1           0        1.141037   -0.583824    0.000000
      2          8           0        1.327218    0.383804    0.000000
      3          8           0        0.000000    0.907322    0.000000
      4          7           0       -0.996486   -0.048959    0.000000
      5          8           0       -0.597922   -1.175309    0.000000
 ---------------------------------------------------------------------

 SCF Done:  E(RHF) =  -279.506543644     A.U. after   14 cycles
 E2 =    -0.9485288943D+00 EUMP2 =    -0.28045507253785D+03
 E2 =    -0.9485288943D+00 EUMP2 =    -0.28045507253785D+03

 The electronic state is 1-A'.
 Alpha  occ. eigenvalues --  -20.71795 -20.68638 -20.67027 -15.82607  -1.64223
 Alpha  occ. eigenvalues --   -1.50533  -1.29385  -0.96010  -0.83185  -0.75815
 Alpha  occ. eigenvalues --   -0.73881  -0.63974  -0.61891  -0.61704  -0.50371
 Alpha  occ. eigenvalues --   -0.49702
 Alpha virt. eigenvalues --    0.03476   0.06090   0.09518   0.10093   0.11974
 Alpha virt. eigenvalues --    0.12242   0.14853   0.15129   0.17766   0.18072
 Alpha virt. eigenvalues --    0.18997   0.21105   0.21667   0.24049   0.24654

 Mulliken charges:
               1
     1  H    0.281603
     2  O   -0.272166
     3  O    0.038304
     4  N    0.151270
     5  O   -0.199010
 Sum of Mulliken charges =  -0.00000

 Dipole moment (field-independent basis, Debye):
    X=              0.0995    Y=             -1.1081    Z=              0.0000  Tot=              1.1126
 Quadrupole moment (field-independent basis, Debye-Ang):
   XX=            -23.2541   YY=            -23.0459   ZZ=            -21.9384
   XY=             -2.0076   XZ=              0.0000   YZ=              0.0000

  Exact polarizability:  31.216   4.293  29.963   0.000   0.000  17.647
 Approx polarizability:  24.745   0.654  27.645  -0.000  -0.000  15.531

                      1                      2                      3
                     A"                     A'                     A"
 Frequencies --    354.2822               365.9334               516.6589
 Red. masses --      1.5447                 6.9934                 2.9696
 Frc consts  --      0.1142                 0.5518                 0.4670
 IR Inten    --     63.8036                 7.7123                25.8020

                      4                      5                      6
                     A'                     A'                     A'
 Frequencies --    713.8196               834.8107               971.2601
 Red. masses --     13.2011                12.1753                 9.5240
 Frc consts  --      3.9631                 4.9993                 5.2935
 IR Inten    --    221.9316                27.8636                13.0693

                      7                      8                      9
                     A'                     A'                     A'
 Frequencies --   1430.0807              1565.0281              3497.7245
 Red. masses --      1.2825                 7.3485                 1.0640
 Frc consts  --      1.5453                10.6046                 7.6695
 IR Inten    --     77.4982               153.8606                38.0596

 - Thermochemistry -
 -------------------
 Temperature   298.150 Kelvin.  Pressure   1.00000 Atm.
 Atom     1 has atomic number  1 and mass   1.00783

 Molecular mass:    62.99564 amu.
 Principal axes and moments of inertia in atomic units:
                           1         2         3
     Eigenvalues --    83.39115 227.57703 310.96818
           X            0.79841  -0.60212   0.00000
           Y            0.60212   0.79841   0.00000
           Z            0.00000   0.00000   1.00000
 This molecule is an asymmetric top.
 Rotational symmetry number  1.
 Rotational temperatures (Kelvin)      1.03865     0.38059     0.27853
 Rotational constants (GHZ):          21.64188     7.93024     5.80362
 Zero-point vibrational energy      61306.2 (Joules/Mol)
                                   14.65254 (Kcal/Mol)
 Warning -- explicit consideration of   3 degrees of freedom as
           vibrations may cause significant error
 Vibrational temperatures:    509.73   526.50   743.36  1027.03  1201.11
          (Kelvin)           1397.43  2057.57  2251.73  5032.45

 Zero-point correction=                           0.023350 (Hartree/Particle)
 Thermal correction to Energy=                    0.027323
 Thermal correction to Enthalpy=                  0.028267
 Thermal correction to Gibbs Free Energy=        -0.002662
 Sum of electronic and zero-point Energies=           -280.431722
 Sum of electronic and thermal Energies=              -280.427749
 Sum of electronic and thermal Enthalpies=            -280.426805
 Sum of electronic and thermal Free Energies=         -280.457735

                     E (Thermal)             CV                S
                      KCal/Mol        Cal/Mol-Kelvin    Cal/Mol-Kelvin
 Total                   17.146             12.246             65.097
 Electronic               0.000              0.000              0.000
 Translational            0.889              2.981             38.341
 Rotational               0.889              2.981             23.294
 Vibrational             15.368              6.285              3.462
 Vibration     1          0.730              1.566              1.147
 Vibration     2          0.739              1.542              1.097
 Vibration     3          0.872              1.213              0.618

                       ! Non-Optimized Parameters !

 1\1\GINC-N2109\Freq\RMP2-FC\Aug-CC-pVTZ\H1N1O3\CGAVINH\06-Mar-2022\1\\
 #p freq mp2/aug-cc-pvtz density=current\\title\\0,1\H\O,1,r1\O,2,r2,1,
 a1\N,3,r3,2,a2,1,d1,0\O,4,r4,3,a3,2,d2,0\\r1=0.98537664\r2=1.42673666\
 r3=1.38110764\r4=1.19478846\a1=100.6355057\a2=114.65284686\a3=114.3339
 2022\d1=0.\d2=0.\\Version=ES64L-G16RevB.01\State=1-A'\HF=-279.5065436\
 MP2=-280.4550725\RMSD=3.977e-09\RMSF=2.423e-03\ZeroPoint=0.0233503\The
 rmal=0.0273231\Dipole=-0.1208315,0.,-0.4207034\DipoleDeriv=0.3128208,0
 .,0.0433952,0.,0.3005745,0.,-0.0147445,0.,0.1889547,-0.5417118,0.,0.27

 Normal termination of Gaussian 16 at Sun Mar  6 19:35:30 2022.
