 Gaussian 16, Revision B.01,
 Gaussian 16:  ES64L-G16RevB.01 20-Dec-2017

 ---------------------------------------
 #p freq mp2/aug-cc-pvtz density=current
 ---------------------------------------

 -----
 title
 -----
 Symbolic Z-matrix:
 Charge =  0 Multiplicity = 1

                         Standard orientation:
 ---------------------------------------------------------------------
 Center     Atomic      Atomic             Coordinates (Angstroms)
 Number     Number       Type             X           Y           Z
 ---------------------------------------------------------------------
      1          1           0        1.100581   -0.606169   -0.000000
      2          8           0        1.312680    0.356110   -0.000000
      3          8           0       -0.000000    0.915081    0.000000
      4          7           0       -0.996883   -0.040786    0.000000
      5          8           0       -0.577980   -1.159732    0.000000
 ---------------------------------------------------------------------

 SCF Done:  E(RHF) =  -279.506254280     A.U. after   14 cycles
 E2 =    -0.9488725371D+00 EUMP2 =    -0.28045512681675D+03
 E2 =    -0.9488725371D+00 EUMP2 =    -0.28045512681675D+03

 The electronic state is 1-A'.
 Alpha  occ. eigenvalues --  -20.71871 -20.68672 -20.66757 -15.82671  -1.64565
 Alpha  occ. eigenvalues --   -1.50365  -1.29332  -0.96001  -0.83614  -0.75915
 Alpha  occ. eigenvalues --   -0.74017  -0.63584  -0.61777  -0.61766  -0.50650
 Alpha  occ. eigenvalues --   -0.49692
 Alpha virt. eigenvalues --    0.03516   0.05963   0.09512   0.10021   0.11969
 Alpha virt. eigenvalues --    0.12254   0.14965   0.15223   0.17737   0.18031
 Alpha virt. eigenvalues --    0.18999   0.21092   0.21667   0.24244   0.24636

 Mulliken charges:
               1
     1  H    0.277271
     2  O   -0.274261
     3  O    0.038052
     4  N    0.153738
     5  O   -0.194800
 Sum of Mulliken charges =  -0.00000

 Dipole moment (field-independent basis, Debye):
    X=              0.0262    Y=             -1.0927    Z=             -0.0000  Tot=              1.0930
 Quadrupole moment (field-independent basis, Debye-Ang):
   XX=            -23.3558   YY=            -22.9341   ZZ=            -21.9294
   XY=             -1.9839   XZ=              0.0000   YZ=             -0.0000

  Exact polarizability:  30.890   4.060  29.720  -0.000   0.000  17.598
 Approx polarizability:  24.616   0.408  27.522  -0.000   0.000  15.504

                      1                      2                      3
                     A"                     A'                     A"
 Frequencies --    355.5651               412.8299               529.7519
 Red. masses --      1.5461                 6.9969                 2.9439
 Frc consts  --      0.1152                 0.7026                 0.4868
 IR Inten    --     62.9158                 7.9314                25.2093

                      4                      5                      6
                     A'                     A'                     A'
 Frequencies --    718.6847               834.6419               974.0782
 Red. masses --     13.5042                12.3615                 9.5600
 Frc consts  --      4.1096                 5.0737                 5.3444
 IR Inten    --    218.7946                27.2112                11.9745

                      7                      8                      9
                     A'                     A'                     A'
 Frequencies --   1428.0823              1571.6814              3485.1991
 Red. masses --      1.3086                 6.4567                 1.0634
 Frc consts  --      1.5724                 9.3970                 7.6106
 IR Inten    --     81.0297               148.1645                44.5563

 - Thermochemistry -
 -------------------
 Temperature   298.150 Kelvin.  Pressure   1.00000 Atm.
 Atom     1 has atomic number  1 and mass   1.00783

 Molecular mass:    62.99564 amu.
 Principal axes and moments of inertia in atomic units:
                           1         2         3
     Eigenvalues --    84.96567 219.80637 304.77204
           X            0.80105  -0.59860   0.00000
           Y            0.59860   0.80105   0.00000
           Z           -0.00000   0.00000   1.00000
 This molecule is an asymmetric top.
 Rotational symmetry number  1.
 Rotational temperatures (Kelvin)      1.01940     0.39405     0.28419
 Rotational constants (GHZ):          21.24083     8.21060     5.92161
 Zero-point vibrational energy      61670.6 (Joules/Mol)
                                   14.73962 (Kcal/Mol)
 Warning -- explicit consideration of   3 degrees of freedom as
           vibrations may cause significant error
 Vibrational temperatures:    511.58   593.97   762.19  1034.03  1200.86
          (Kelvin)           1401.48  2054.69  2261.30  5014.42

 Zero-point correction=                           0.023489 (Hartree/Particle)
 Thermal correction to Energy=                    0.027402
 Thermal correction to Enthalpy=                  0.028346
 Thermal correction to Gibbs Free Energy=        -0.002460
 Sum of electronic and zero-point Energies=           -280.431638
 Sum of electronic and thermal Energies=              -280.427725
 Sum of electronic and thermal Enthalpies=            -280.426780
 Sum of electronic and thermal Free Energies=         -280.457587

                     E (Thermal)             CV                S
                      KCal/Mol        Cal/Mol-Kelvin    Cal/Mol-Kelvin
 Total                   17.195             12.102             64.838
 Electronic               0.000              0.000              0.000
 Translational            0.889              2.981             38.341
 Rotational               0.889              2.981             23.258
 Vibrational             15.418              6.140              3.240
 Vibration     1          0.731              1.564              1.141
 Vibration     2          0.777              1.442              0.917
 Vibration     3          0.885              1.184              0.588

                       ! Non-Optimized Parameters !

 1\1\GINC-N2218\Freq\RMP2-FC\Aug-CC-pVTZ\H1N1O3\CGAVINH\06-Mar-2022\1\\
 #p freq mp2/aug-cc-pvtz density=current\\title\\0,1\H\O,1,r1\O,2,r2,1,
 a1\N,3,r3,2,a2,1,d1,0\O,4,r4,3,a3,2,d2,0\\r1=0.98537664\r2=1.42673666\
 r3=1.38110764\r4=1.19478846\a1=100.6355057\a2=113.13777052\a3=113.2721
 7286\d1=0.\d2=0.\\Version=ES64L-G16RevB.01\State=1-A'\HF=-279.5062543\
 MP2=-280.4551268\RMSD=4.526e-09\RMSF=2.339e-03\ZeroPoint=0.0234891\The
 rmal=0.0274022\Dipole=-0.1025931,0.,-0.4176161\DipoleDeriv=0.319524,0.
 ,0.0363812,0.,0.2976592,0.,-0.027343,0.,0.2040458,-0.5264565,0.,0.2836

 Normal termination of Gaussian 16 at Sun Mar  6 19:47:46 2022.
