 Gaussian 16, Revision B.01,
 Gaussian 16:  ES64L-G16RevB.01 20-Dec-2017

 ---------------------------------------
 #p freq mp2/aug-cc-pvtz density=current
 ---------------------------------------

 -----
 title
 -----
 Symbolic Z-matrix:
 Charge =  0 Multiplicity = 1

                         Standard orientation:
 ---------------------------------------------------------------------
 Center     Atomic      Atomic             Coordinates (Angstroms)
 Number     Number       Type             X           Y           Z
 ---------------------------------------------------------------------
      1          1           0        1.513191    1.692308   -0.000000
      2          8           0        1.453982    0.725144   -0.000000
      3          8           0        0.000000    0.672923   -0.000000
      4          7           0       -0.259346   -0.762622    0.000000
      5          8           0       -1.416203   -0.942311    0.000000
 ---------------------------------------------------------------------

 SCF Done:  E(RHF) =  -279.501255504     A.U. after   14 cycles
 E2 =    -0.9453456845D+00 EUMP2 =    -0.28044660118844D+03
 E2 =    -0.9453456845D+00 EUMP2 =    -0.28044660118844D+03

 The electronic state is 1-A'.
 Alpha  occ. eigenvalues --  -20.69067 -20.68427 -20.66076 -15.81279  -1.62413
 Alpha  occ. eigenvalues --   -1.49703  -1.25410  -0.94819  -0.77383  -0.75787
 Alpha  occ. eigenvalues --   -0.71203  -0.67879  -0.62082  -0.59130  -0.48548
 Alpha  occ. eigenvalues --   -0.47253
 Alpha virt. eigenvalues --    0.02986   0.07158   0.08592   0.10164   0.13385
 Alpha virt. eigenvalues --    0.13408   0.14412   0.15464   0.17819   0.19396
 Alpha virt. eigenvalues --    0.19963   0.20641   0.22070   0.23533   0.23735

 Mulliken charges:
               1
     1  H    0.253182
     2  O   -0.201862
     3  O   -0.148810
     4  N    0.290923
     5  O   -0.193432
 Sum of Mulliken charges =  -0.00000

 Dipole moment (field-independent basis, Debye):
    X=              0.4609    Y=              1.3565    Z=             -0.0000  Tot=              1.4327
 Quadrupole moment (field-independent basis, Debye-Ang):
   XX=            -22.6379   YY=            -18.5965   ZZ=            -22.0069
   XY=              3.1339   XZ=              0.0000   YZ=              0.0000

  Exact polarizability:  33.889   9.406  30.251  -0.000  -0.000  17.909
 Approx polarizability:  28.995   5.053  23.541  -0.000  -0.000  15.512

 ******    1 imaginary frequencies (negative Signs) ******

                      1                      2                      3
                     A"                     A"                     A'
 Frequencies --   -255.3581               225.6215               337.8801
 Red. masses --      1.1156                13.1961                 8.7182
 Frc consts  --      0.0429                 0.3958                 0.5864
 IR Inten    --    123.5870                 0.0000                 5.4714

                      4                      5                      6
                     A'                     A'                     A'
 Frequencies --    453.0090               787.1727               970.0148
 Red. masses --     12.5076                12.9160                15.7825
 Frc consts  --      1.5123                 4.7154                 8.7495
 IR Inten    --    197.8928               169.3957                24.0541

                      7                      8                      9
                     A'                     A'                     A'
 Frequencies --   1383.6844              1677.7984              3777.9917
 Red. masses --      1.1296                12.9543                 1.0670
 Frc consts  --      1.2742                21.4855                 8.9728
 IR Inten    --    161.2562               137.2970                80.1355

 - Thermochemistry -
 -------------------
 Temperature   298.150 Kelvin.  Pressure   1.00000 Atm.
 Atom     1 has atomic number  1 and mass   1.00783

 Molecular mass:    62.99564 amu.
 Principal axes and moments of inertia in atomic units:
                           1         2         3
     Eigenvalues --    32.91702 359.71977 392.63678
           X            0.80897  -0.58785   0.00000
           Y            0.58785   0.80897   0.00000
           Z           -0.00000   0.00000   1.00000
 This molecule is an asymmetric top.
 Rotational symmetry number  1.
 Rotational temperatures (Kelvin)      2.63128     0.24078     0.22060
 Rotational constants (GHZ):          54.82700     5.01708     4.59646
    1 imaginary frequencies ignored.
 Zero-point vibrational energy      57499.5 (Joules/Mol)
                                   13.74272 (Kcal/Mol)
 Warning -- explicit consideration of   3 degrees of freedom as
           vibrations may cause significant error
 Vibrational temperatures:    324.62   486.13   651.78  1132.57  1395.64
          (Kelvin)           1990.81  2413.98  5435.69

 Zero-point correction=                           0.021900 (Hartree/Particle)
 Thermal correction to Energy=                    0.026025
 Thermal correction to Enthalpy=                  0.026969
 Thermal correction to Gibbs Free Energy=        -0.004232
 Sum of electronic and zero-point Energies=           -280.424701
 Sum of electronic and thermal Energies=              -280.420577
 Sum of electronic and thermal Enthalpies=            -280.419632
 Sum of electronic and thermal Free Energies=         -280.450833

                     E (Thermal)             CV                S
                      KCal/Mol        Cal/Mol-Kelvin    Cal/Mol-Kelvin
 Total                   16.331             11.953             65.668
 Electronic               0.000              0.000              0.000
 Translational            0.889              2.981             38.341
 Rotational               0.889              2.981             23.057
 Vibrational             14.553              5.991              4.271
 Vibration     1          0.650              1.802              1.914
 Vibration     2          0.718              1.600              1.222
 Vibration     3          0.812              1.354              0.787

                       ! Non-Optimized Parameters !

 1\1\GINC-N2125\Freq\RMP2-FC\Aug-CC-pVTZ\H1N1O3\CGAVINH\21-Feb-2022\1\\
 #p freq mp2/aug-cc-pvtz density=current\\title\\0,1\H\O,1,r1\O,2,r2,1,
 a1\N,3,r3,2,a2,1,d1,0\O,4,r4,3,a3,2,d2,0\\r1=0.96897556\r2=1.45491931\
 r3=1.45878406\r4=1.17072885\a1=95.56014057\a2=102.29752444\a3=109.0695
 5123\d1=180.\d2=180.\\Version=ES64L-G16RevB.01\State=1-A'\HF=-279.5012
 555\MP2=-280.4466012\RMSD=3.771e-09\RMSF=1.755e-03\ZeroPoint=0.0219004
 \Thermal=0.0260246\Dipole=-0.1483771,0.,-0.5437805\DipoleDeriv=0.27442
 88,0.,0.0556583,0.,0.3531333,0.,0.0782752,0.,0.2720444,-0.3423278,0.,-

 Normal termination of Gaussian 16 at Mon Feb 21 20:41:50 2022.
