 Gaussian 16, Revision B.01,
 Gaussian 16:  ES64L-G16RevB.01 20-Dec-2017

 ---------------------------------------
 #p freq mp2/aug-cc-pvtz density=current
 ---------------------------------------

 -----
 title
 -----
 Symbolic Z-matrix:
 Charge =  0 Multiplicity = 1

                         Standard orientation:
 ---------------------------------------------------------------------
 Center     Atomic      Atomic             Coordinates (Angstroms)
 Number     Number       Type             X           Y           Z
 ---------------------------------------------------------------------
      1          1           0        1.520317    1.699602    0.000000
      2          8           0        1.433406    0.734532    0.000000
      3          8           0       -0.000000    0.673228    0.000000
      4          7           0       -0.249517   -0.764059   -0.000000
      5          8           0       -1.405118   -0.951659   -0.000000
 ---------------------------------------------------------------------

 SCF Done:  E(RHF) =  -279.503119546     A.U. after   14 cycles
 E2 =    -0.9434113444D+00 EUMP2 =    -0.28044653089094D+03
 E2 =    -0.9434113444D+00 EUMP2 =    -0.28044653089094D+03

 The electronic state is 1-A'.
 Alpha  occ. eigenvalues --  -20.68972 -20.68393 -20.65824 -15.81241  -1.62473
 Alpha  occ. eigenvalues --   -1.50396  -1.25077  -0.94836  -0.77502  -0.76086
 Alpha  occ. eigenvalues --   -0.71375  -0.67948  -0.62239  -0.59206  -0.48151
 Alpha  occ. eigenvalues --   -0.47200
 Alpha virt. eigenvalues --    0.02966   0.07170   0.08640   0.10179   0.13394
 Alpha virt. eigenvalues --    0.13480   0.14419   0.15462   0.17820   0.19399
 Alpha virt. eigenvalues --    0.19973   0.20653   0.22243   0.23755   0.24498

 Mulliken charges:
               1
     1  H    0.249119
     2  O   -0.199291
     3  O   -0.145826
     4  N    0.289926
     5  O   -0.193928
 Sum of Mulliken charges =  -0.00000

 Dipole moment (field-independent basis, Debye):
    X=              0.5044    Y=              1.3793    Z=              0.0000  Tot=              1.4687
 Quadrupole moment (field-independent basis, Debye-Ang):
   XX=            -22.5797   YY=            -18.5424   ZZ=            -21.9819
   XY=              3.1903   XZ=              0.0000   YZ=             -0.0000

  Exact polarizability:  33.503   9.435  30.335   0.000   0.000  17.861
 Approx polarizability:  28.432   5.118  23.567   0.000   0.000  15.489

 ******    1 imaginary frequencies (negative Signs) ******

                      1                      2                      3
                     A"                     A"                     A'
 Frequencies --   -262.2018               220.8905               336.8496
 Red. masses --      1.1352                10.8635                 8.5009
 Frc consts  --      0.0460                 0.3123                 0.5683
 IR Inten    --    125.4706                 0.5798                 8.3132

                      4                      5                      6
                     A'                     A'                     A'
 Frequencies --    457.8240               795.8295              1011.7386
 Red. masses --     12.4674                12.7655                15.7674
 Frc consts  --      1.5397                 4.7635                 9.5092
 IR Inten    --    198.8824               175.2637                15.2705

                      7                      8                      9
                     A'                     A'                     A'
 Frequencies --   1393.9829              1678.4265              3776.6945
 Red. masses --      1.1355                12.9530                 1.0674
 Frc consts  --      1.3000                21.4994                 8.9702
 IR Inten    --    155.3466               138.9071                83.4498

 - Thermochemistry -
 -------------------
 Temperature   298.150 Kelvin.  Pressure   1.00000 Atm.
 Atom     1 has atomic number  1 and mass   1.00783

 Molecular mass:    62.99564 amu.
 Principal axes and moments of inertia in atomic units:
                           1         2         3
     Eigenvalues --    32.54392 356.75424 389.29816
           X            0.80269  -0.59640   0.00000
           Y            0.59640   0.80269   0.00000
           Z            0.00000  -0.00000   1.00000
 This molecule is an asymmetric top.
 Rotational symmetry number  1.
 Rotational temperatures (Kelvin)      2.66145     0.24278     0.22249
 Rotational constants (GHZ):          55.45556     5.05878     4.63588
    1 imaginary frequencies ignored.
 Zero-point vibrational energy      57852.8 (Joules/Mol)
                                   13.82716 (Kcal/Mol)
 Warning -- explicit consideration of   3 degrees of freedom as
           vibrations may cause significant error
 Vibrational temperatures:    317.81   484.65   658.71  1145.02  1455.67
          (Kelvin)           2005.63  2414.88  5433.82

 Zero-point correction=                           0.022035 (Hartree/Particle)
 Thermal correction to Energy=                    0.026154
 Thermal correction to Enthalpy=                  0.027098
 Thermal correction to Gibbs Free Energy=        -0.004091
 Sum of electronic and zero-point Energies=           -280.424496
 Sum of electronic and thermal Energies=              -280.420377
 Sum of electronic and thermal Enthalpies=            -280.419432
 Sum of electronic and thermal Free Energies=         -280.450622

                     E (Thermal)             CV                S
                      KCal/Mol        Cal/Mol-Kelvin    Cal/Mol-Kelvin
 Total                   16.412             11.886             65.645
 Electronic               0.000              0.000              0.000
 Translational            0.889              2.981             38.341
 Rotational               0.889              2.981             23.029
 Vibrational             14.635              5.925              4.275
 Vibration     1          0.648              1.809              1.952
 Vibration     2          0.718              1.602              1.227
 Vibration     3          0.816              1.344              0.772

                       ! Non-Optimized Parameters !

 1\1\GINC-N2128\Freq\RMP2-FC\Aug-CC-pVTZ\H1N1O3\CGAVINH\21-Feb-2022\1\\
 #p freq mp2/aug-cc-pvtz density=current\\title\\0,1\H\O,1,r1\O,2,r2,1,
 a1\N,3,r3,2,a2,1,d1,0\O,4,r4,3,a3,2,d2,0\\r1=0.96897556\r2=1.43471598\
 r3=1.45878406\r4=1.17072885\a1=97.59494903\a2=102.29752444\a3=109.0695
 5123\d1=180.\d2=180.\\Version=ES64L-G16RevB.01\State=1-A'\HF=-279.5031
 195\MP2=-280.4465309\RMSD=3.610e-09\RMSF=3.721e-03\ZeroPoint=0.022035\
 Thermal=0.0261543\Dipole=-0.1489754,0.,-0.5582826\DipoleDeriv=0.267129
 6,0.,0.04945,0.,0.3564286,0.,0.0789154,0.,0.2780728,-0.3300215,0.,-0.2

 Normal termination of Gaussian 16 at Mon Feb 21 20:16:28 2022.
