 Gaussian 16, Revision B.01,
 Gaussian 16:  ES64L-G16RevB.01 20-Dec-2017

 ---------------------------------------
 #p freq mp2/aug-cc-pvtz density=current
 ---------------------------------------

 -----
 title
 -----
 Symbolic Z-matrix:
 Charge =  0 Multiplicity = 1

                         Standard orientation:
 ---------------------------------------------------------------------
 Center     Atomic      Atomic             Coordinates (Angstroms)
 Number     Number       Type             X           Y           Z
 ---------------------------------------------------------------------
      1          1           0        1.099002   -0.607667    0.000000
      2          8           0        1.312099    0.354391    0.000000
      3          8           0       -0.000000    0.914724    0.000000
      4          7           0       -0.997874   -0.040108    0.000000
      5          8           0       -0.576334   -1.158063    0.000000
 ---------------------------------------------------------------------

 SCF Done:  E(RHF) =  -279.506193565     A.U. after   14 cycles
 E2 =    -0.9488867653D+00 EUMP2 =    -0.28045508033072D+03
 E2 =    -0.9488867653D+00 EUMP2 =    -0.28045508033072D+03

 The electronic state is 1-A'.
 Alpha  occ. eigenvalues --  -20.71851 -20.68662 -20.66743 -15.82683  -1.64591
 Alpha  occ. eigenvalues --   -1.50337  -1.29323  -0.95995  -0.83641  -0.75919
 Alpha  occ. eigenvalues --   -0.74021  -0.63555  -0.61759  -0.61752  -0.50682
 Alpha  occ. eigenvalues --   -0.49681
 Alpha virt. eigenvalues --    0.03517   0.05952   0.09512   0.10018   0.11968
 Alpha virt. eigenvalues --    0.12253   0.14970   0.15227   0.17734   0.18031
 Alpha virt. eigenvalues --    0.19003   0.21090   0.21666   0.24242   0.24636

 Mulliken charges:
               1
     1  H    0.277132
     2  O   -0.274277
     3  O    0.038078
     4  N    0.153687
     5  O   -0.194620
 Sum of Mulliken charges =   0.00000

 Dipole moment (field-independent basis, Debye):
    X=              0.0214    Y=             -1.0925    Z=              0.0000  Tot=              1.0927
 Quadrupole moment (field-independent basis, Debye-Ang):
   XX=            -23.3516   YY=            -22.9327   ZZ=            -21.9287
   XY=             -1.9857   XZ=              0.0000   YZ=              0.0000

  Exact polarizability:  30.885   4.046  29.695   0.000   0.000  17.594
 Approx polarizability:  24.627   0.388  27.497  -0.000  -0.000  15.502

                      1                      2                      3
                     A"                     A'                     A"
 Frequencies --    355.8582               415.7627               530.8693
 Red. masses --      1.5442                 6.9851                 2.9503
 Frc consts  --      0.1152                 0.7114                 0.4899
 IR Inten    --     62.9376                 7.9626                25.1544

                      4                      5                      6
                     A'                     A'                     A'
 Frequencies --    719.9497               834.2247               974.6680
 Red. masses --     13.5361                12.3591                 9.5217
 Frc consts  --      4.1338                 5.0676                 5.3294
 IR Inten    --    219.0796                26.5536                11.8385

                      7                      8                      9
                     A'                     A'                     A'
 Frequencies --   1426.9756              1571.9157              3484.7580
 Red. masses --      1.3092                 6.4662                 1.0634
 Frc consts  --      1.5707                 9.4136                 7.6083
 IR Inten    --     81.2382               147.7862                44.8955

 - Thermochemistry -
 -------------------
 Temperature   298.150 Kelvin.  Pressure   1.00000 Atm.
 Atom     1 has atomic number  1 and mass   1.00783

 Molecular mass:    62.99564 amu.
 Principal axes and moments of inertia in atomic units:
                           1         2         3
     Eigenvalues --    85.04317 219.29562 304.33879
           X            0.80194  -0.59741   0.00000
           Y            0.59741   0.80194   0.00000
           Z            0.00000   0.00000   1.00000
 This molecule is an asymmetric top.
 Rotational symmetry number  1.
 Rotational temperatures (Kelvin)      1.01847     0.39496     0.28460
 Rotational constants (GHZ):          21.22147     8.22972     5.93004
 Zero-point vibrational energy      61697.3 (Joules/Mol)
                                   14.74601 (Kcal/Mol)
 Warning -- explicit consideration of   3 degrees of freedom as
           vibrations may cause significant error
 Vibrational temperatures:    512.00   598.19   763.80  1035.85  1200.26
          (Kelvin)           1402.33  2053.10  2261.64  5013.79

 Zero-point correction=                           0.023499 (Hartree/Particle)
 Thermal correction to Energy=                    0.027408
 Thermal correction to Enthalpy=                  0.028352
 Thermal correction to Gibbs Free Energy=        -0.002446
 Sum of electronic and zero-point Energies=           -280.431581
 Sum of electronic and thermal Energies=              -280.427672
 Sum of electronic and thermal Enthalpies=            -280.426728
 Sum of electronic and thermal Free Energies=         -280.457526

                     E (Thermal)             CV                S
                      KCal/Mol        Cal/Mol-Kelvin    Cal/Mol-Kelvin
 Total                   17.199             12.090             64.820
 Electronic               0.000              0.000              0.000
 Translational            0.889              2.981             38.341
 Rotational               0.889              2.981             23.255
 Vibrational             15.421              6.129              3.225
 Vibration     1          0.731              1.563              1.140
 Vibration     2          0.779              1.436              0.906
 Vibration     3          0.886              1.182              0.585

                       ! Non-Optimized Parameters !

 1\1\GINC-N2108\Freq\RMP2-FC\Aug-CC-pVTZ\H1N1O3\CGAVINH\06-Mar-2022\1\\
 #p freq mp2/aug-cc-pvtz density=current\\title\\0,1\H\O,1,r1\O,2,r2,1,
 a1\N,3,r3,2,a2,1,d1,0\O,4,r4,3,a3,2,d2,0\\r1=0.98537664\r2=1.42673666\
 r3=1.38110764\r4=1.19478846\a1=100.6355057\a2=113.13777052\a3=113.0776
 438\d1=0.\d2=0.\\Version=ES64L-G16RevB.01\State=1-A'\HF=-279.5061936\M
 P2=-280.4550803\RMSD=4.544e-09\RMSF=2.782e-03\ZeroPoint=0.0234993\Ther
 mal=0.0274081\Dipole=-0.1011943,0.,-0.4178343\DipoleDeriv=0.3200151,0.
 ,0.0361072,0.,0.2975854,0.,-0.0278682,0.,0.204808,-0.5262112,0.,0.2840

 Normal termination of Gaussian 16 at Sun Mar  6 19:48:32 2022.
