 Gaussian 16, Revision B.01,
 Gaussian 16:  ES64L-G16RevB.01 20-Dec-2017

 ---------------------------------------
 #p freq mp2/aug-cc-pvtz density=current
 ---------------------------------------

 -----
 title
 -----
 Symbolic Z-matrix:
 Charge =  0 Multiplicity = 1

                         Standard orientation:
 ---------------------------------------------------------------------
 Center     Atomic      Atomic             Coordinates (Angstroms)
 Number     Number       Type             X           Y           Z
 ---------------------------------------------------------------------
      1          1           0        1.101491   -0.605306    0.000000
      2          8           0        1.313014    0.357100    0.000000
      3          8           0        0.000000    0.915286   -0.000000
      4          7           0       -0.996311   -0.041178   -0.000000
      5          8           0       -0.578928   -1.160691   -0.000000
 ---------------------------------------------------------------------

 SCF Done:  E(RHF) =  -279.506285162     A.U. after   14 cycles
 E2 =    -0.9488647649D+00 EUMP2 =    -0.28045514992718D+03
 E2 =    -0.9488647649D+00 EUMP2 =    -0.28045514992718D+03

 The electronic state is 1-A'.
 Alpha  occ. eigenvalues --  -20.71883 -20.68678 -20.66765 -15.82663  -1.64551
 Alpha  occ. eigenvalues --   -1.50381  -1.29337  -0.96005  -0.83599  -0.75912
 Alpha  occ. eigenvalues --   -0.74015  -0.63600  -0.61788  -0.61774  -0.50632
 Alpha  occ. eigenvalues --   -0.49698
 Alpha virt. eigenvalues --    0.03515   0.05970   0.09512   0.10023   0.11969
 Alpha virt. eigenvalues --    0.12255   0.14961   0.15221   0.17738   0.18032
 Alpha virt. eigenvalues --    0.18997   0.21093   0.21667   0.24245   0.24636

 Mulliken charges:
               1
     1  H    0.277348
     2  O   -0.274253
     3  O    0.038037
     4  N    0.153768
     5  O   -0.194901
 Sum of Mulliken charges =  -0.00000

 Dipole moment (field-independent basis, Debye):
    X=              0.0289    Y=             -1.0928    Z=              0.0000  Tot=              1.0932
 Quadrupole moment (field-independent basis, Debye-Ang):
   XX=            -23.3582   YY=            -22.9350   ZZ=            -21.9298
   XY=             -1.9829   XZ=             -0.0000   YZ=              0.0000

  Exact polarizability:  30.893   4.069  29.734   0.000  -0.000  17.600
 Approx polarizability:  24.610   0.420  27.537   0.000  -0.000  15.505

                      1                      2                      3
                     A"                     A'                     A"
 Frequencies --    355.3894               411.1496               529.1038
 Red. masses --      1.5473                 7.0037                 2.9403
 Frc consts  --      0.1151                 0.6976                 0.4850
 IR Inten    --     62.9039                 7.9137                25.2404

                      4                      5                      6
                     A'                     A'                     A'
 Frequencies --    717.9465               834.8812               973.7418
 Red. masses --     13.4861                12.3630                 9.5819
 Frc consts  --      4.0956                 5.0772                 5.3529
 IR Inten    --    218.6291                27.5897                12.0541

                      7                      8                      9
                     A'                     A'                     A'
 Frequencies --   1428.7149              1571.5463              3485.4516
 Red. masses --      1.3083                 6.4512                 1.0635
 Frc consts  --      1.5734                 9.3874                 7.6120
 IR Inten    --     80.9113               148.3838                44.3617

 - Thermochemistry -
 -------------------
 Temperature   298.150 Kelvin.  Pressure   1.00000 Atm.
 Atom     1 has atomic number  1 and mass   1.00783

 Molecular mass:    62.99564 amu.
 Principal axes and moments of inertia in atomic units:
                           1         2         3
     Eigenvalues --    84.92063 220.10105 305.02168
           X            0.80054  -0.59928   0.00000
           Y            0.59928   0.80054   0.00000
           Z           -0.00000   0.00000   1.00000
 This molecule is an asymmetric top.
 Rotational symmetry number  1.
 Rotational temperatures (Kelvin)      1.01994     0.39352     0.28396
 Rotational constants (GHZ):          21.25209     8.19960     5.91676
 Zero-point vibrational energy      61655.1 (Joules/Mol)
                                   14.73592 (Kcal/Mol)
 Warning -- explicit consideration of   3 degrees of freedom as
           vibrations may cause significant error
 Vibrational temperatures:    511.33   591.55   761.26  1032.96  1201.21
          (Kelvin)           1401.00  2055.60  2261.10  5014.79

 Zero-point correction=                           0.023483 (Hartree/Particle)
 Thermal correction to Energy=                    0.027399
 Thermal correction to Enthalpy=                  0.028343
 Thermal correction to Gibbs Free Energy=        -0.002469
 Sum of electronic and zero-point Energies=           -280.431667
 Sum of electronic and thermal Energies=              -280.427751
 Sum of electronic and thermal Enthalpies=            -280.426807
 Sum of electronic and thermal Free Energies=         -280.457619

                     E (Thermal)             CV                S
                      KCal/Mol        Cal/Mol-Kelvin    Cal/Mol-Kelvin
 Total                   17.193             12.109             64.849
 Electronic               0.000              0.000              0.000
 Translational            0.889              2.981             38.341
 Rotational               0.889              2.981             23.260
 Vibrational             15.416              6.147              3.249
 Vibration     1          0.731              1.564              1.142
 Vibration     2          0.775              1.446              0.923
 Vibration     3          0.884              1.186              0.589

                       ! Non-Optimized Parameters !

 1\1\GINC-N2228\Freq\RMP2-FC\Aug-CC-pVTZ\H1N1O3\CGAVINH\06-Mar-2022\1\\
 #p freq mp2/aug-cc-pvtz density=current\\title\\0,1\H\O,1,r1\O,2,r2,1,
 a1\N,3,r3,2,a2,1,d1,0\O,4,r4,3,a3,2,d2,0\\r1=0.98537664\r2=1.42673666\
 r3=1.38110764\r4=1.19478846\a1=100.6355057\a2=113.13777052\a3=113.3842
 6451\d1=0.\d2=0.\\Version=ES64L-G16RevB.01\State=1-A'\HF=-279.5062852\
 MP2=-280.4551499\RMSD=4.515e-09\RMSF=2.086e-03\ZeroPoint=0.0234832\The
 rmal=0.0273988\Dipole=-0.1033979,0.,-0.417494\DipoleDeriv=0.3192428,0.
 ,0.0365391,0.,0.2977018,0.,-0.0270397,0.,0.2036069,-0.5266099,0.,0.283

 Normal termination of Gaussian 16 at Sun Mar  6 19:47:17 2022.
