 Gaussian 16, Revision B.01,
 Gaussian 16:  ES64L-G16RevB.01 20-Dec-2017

 ---------------------------------------
 #p freq mp2/aug-cc-pvtz density=current
 ---------------------------------------

 -----
 title
 -----
 Symbolic Z-matrix:
 Charge =  0 Multiplicity = 1

                         Standard orientation:
 ---------------------------------------------------------------------
 Center     Atomic      Atomic             Coordinates (Angstroms)
 Number     Number       Type             X           Y           Z
 ---------------------------------------------------------------------
      1          1           0        1.544431    1.694812   -0.000000
      2          8           0        1.453818    0.730083   -0.000000
      3          8           0       -0.000000    0.673492   -0.000000
      4          7           0       -0.255030   -0.762826    0.000000
      5          8           0       -1.423721   -0.947953    0.000000
 ---------------------------------------------------------------------

 SCF Done:  E(RHF) =  -279.499315314     A.U. after   14 cycles
 E2 =    -0.9472081323D+00 EUMP2 =    -0.28044652344624D+03
 E2 =    -0.9472081323D+00 EUMP2 =    -0.28044652344624D+03

 The electronic state is 1-A'.
 Alpha  occ. eigenvalues --  -20.69378 -20.68379 -20.66156 -15.81465  -1.61420
 Alpha  occ. eigenvalues --   -1.49537  -1.25565  -0.94980  -0.77146  -0.75592
 Alpha  occ. eigenvalues --   -0.70949  -0.67778  -0.61778  -0.59020  -0.48622
 Alpha  occ. eigenvalues --   -0.47491
 Alpha virt. eigenvalues --    0.02929   0.06782   0.08614   0.10172   0.13378
 Alpha virt. eigenvalues --    0.13419   0.14382   0.15423   0.17805   0.19431
 Alpha virt. eigenvalues --    0.19936   0.20634   0.22038   0.23440   0.23730

 Mulliken charges:
               1
     1  H    0.250685
     2  O   -0.200593
     3  O   -0.144437
     4  N    0.290288
     5  O   -0.195943
 Sum of Mulliken charges =  -0.00000

 Dipole moment (field-independent basis, Debye):
    X=              0.5542    Y=              1.4154    Z=             -0.0000  Tot=              1.5201
 Quadrupole moment (field-independent basis, Debye-Ang):
   XX=            -22.5329   YY=            -18.6157   ZZ=            -22.0311
   XY=              3.2147   XZ=              0.0000   YZ=              0.0000

  Exact polarizability:  34.133   9.608  30.423  -0.000  -0.000  17.952
 Approx polarizability:  29.288   5.208  23.630  -0.000  -0.000  15.577

 ******    1 imaginary frequencies (negative Signs) ******

                      1                      2                      3
                     A"                     A"                     A'
 Frequencies --   -271.4113               265.4930               349.8522
 Red. masses --      1.1295                11.4043                 8.4701
 Frc consts  --      0.0490                 0.4736                 0.6108
 IR Inten    --    125.2175                 0.3138                 8.8157

                      4                      5                      6
                     A'                     A'                     A'
 Frequencies --    445.3588               785.3456               965.7324
 Red. masses --     12.5014                13.1864                15.3966
 Frc consts  --      1.4609                 4.7918                 8.4604
 IR Inten    --    196.2832               170.7272                24.1062

                      7                      8                      9
                     A'                     A'                     A'
 Frequencies --   1369.5307              1599.3541              3778.8163
 Red. masses --      1.1447                11.7148                 1.0676
 Frc consts  --      1.2649                17.6553                 8.9815
 IR Inten    --    161.7118               107.6506                83.4886

 - Thermochemistry -
 -------------------
 Temperature   298.150 Kelvin.  Pressure   1.00000 Atm.
 Atom     1 has atomic number  1 and mass   1.00783

 Molecular mass:    62.99564 amu.
 Principal axes and moments of inertia in atomic units:
                           1         2         3
     Eigenvalues --    32.89127 362.27448 395.16575
           X            0.80852  -0.58847   0.00000
           Y            0.58847   0.80852   0.00000
           Z           -0.00000   0.00000   1.00000
 This molecule is an asymmetric top.
 Rotational symmetry number  1.
 Rotational temperatures (Kelvin)      2.63334     0.23908     0.21918
 Rotational constants (GHZ):          54.86992     4.98170     4.56705
    1 imaginary frequencies ignored.
 Zero-point vibrational energy      57178.4 (Joules/Mol)
                                   13.66597 (Kcal/Mol)
 Warning -- explicit consideration of   3 degrees of freedom as
           vibrations may cause significant error
 Vibrational temperatures:    381.99   503.36   640.77  1129.94  1389.47
          (Kelvin)           1970.45  2301.11  5436.87

 Zero-point correction=                           0.021778 (Hartree/Particle)
 Thermal correction to Energy=                    0.025841
 Thermal correction to Enthalpy=                  0.026786
 Thermal correction to Gibbs Free Energy=        -0.004272
 Sum of electronic and zero-point Energies=           -280.424745
 Sum of electronic and thermal Energies=              -280.420682
 Sum of electronic and thermal Enthalpies=            -280.419738
 Sum of electronic and thermal Free Energies=         -280.450796

                     E (Thermal)             CV                S
                      KCal/Mol        Cal/Mol-Kelvin    Cal/Mol-Kelvin
 Total                   16.216             11.906             65.367
 Electronic               0.000              0.000              0.000
 Translational            0.889              2.981             38.341
 Rotational               0.889              2.981             23.070
 Vibrational             14.438              5.945              3.957
 Vibration     1          0.671              1.736              1.625
 Vibration     2          0.727              1.576              1.167
 Vibration     3          0.805              1.371              0.810

                       ! Non-Optimized Parameters !

 1\1\GINC-N2129\Freq\RMP2-FC\Aug-CC-pVTZ\H1N1O3\CGAVINH\21-Feb-2022\1\\
 #p freq mp2/aug-cc-pvtz density=current\\title\\0,1\H\O,1,r1\O,2,r2,1,
 a1\N,3,r3,2,a2,1,d1,0\O,4,r4,3,a3,2,d2,0\\r1=0.96897556\r2=1.45491931\
 r3=1.45878406\r4=1.18326343\a1=97.59494903\a2=102.29752444\a3=109.0695
 5123\d1=180.\d2=180.\\Version=ES64L-G16RevB.01\State=1-A'\HF=-279.4993
 153\MP2=-280.4465234\RMSD=4.137e-09\RMSF=6.264e-03\ZeroPoint=0.0217781
 \Thermal=0.0258414\Dipole=-0.1650074,0.,-0.5748217\DipoleDeriv=0.26640
 8,0.,0.0484914,0.,0.3559622,0.,0.0829577,0.,0.2770404,-0.3304768,0.,-0

 Normal termination of Gaussian 16 at Mon Feb 21 20:29:54 2022.
