 Gaussian 16, Revision B.01,
 Gaussian 16:  ES64L-G16RevB.01 20-Dec-2017

 ---------------------------------------
 #p freq mp2/aug-cc-pvtz density=current
 ---------------------------------------

 -----
 title
 -----
 Symbolic Z-matrix:
 Charge =  0 Multiplicity = 1

                         Standard orientation:
 ---------------------------------------------------------------------
 Center     Atomic      Atomic             Coordinates (Angstroms)
 Number     Number       Type             X           Y           Z
 ---------------------------------------------------------------------
      1          1           0        1.091789   -0.593322   -0.000000
      2          8           0        1.316174    0.366166   -0.000000
      3          8           0        0.000000    0.916860    0.000000
      4          7           0       -0.990844   -0.045267    0.000000
      5          8           0       -0.585660   -1.169253   -0.000000
 ---------------------------------------------------------------------

 SCF Done:  E(RHF) =  -279.506148394     A.U. after   14 cycles
 E2 =    -0.9490466263D+00 EUMP2 =    -0.28045519502055D+03
 E2 =    -0.9490466263D+00 EUMP2 =    -0.28045519502055D+03

 The electronic state is 1-A'.
 Alpha  occ. eigenvalues --  -20.71968 -20.68793 -20.66852 -15.82657  -1.64517
 Alpha  occ. eigenvalues --   -1.50578  -1.29385  -0.96034  -0.83567  -0.75935
 Alpha  occ. eigenvalues --   -0.74039  -0.63777  -0.61885  -0.61884  -0.50542
 Alpha  occ. eigenvalues --   -0.49763
 Alpha virt. eigenvalues --    0.03527   0.05978   0.09505   0.10033   0.11951
 Alpha virt. eigenvalues --    0.12261   0.14932   0.15261   0.17743   0.17999
 Alpha virt. eigenvalues --    0.18968   0.21088   0.21687   0.24238   0.24633

 Mulliken charges:
               1
     1  H    0.274823
     2  O   -0.274648
     3  O    0.038349
     4  N    0.155515
     5  O   -0.194039
 Sum of Mulliken charges =  -0.00000

 Dipole moment (field-independent basis, Debye):
    X=              0.0251    Y=             -1.0845    Z=             -0.0000  Tot=              1.0848
 Quadrupole moment (field-independent basis, Debye-Ang):
   XX=            -23.4203   YY=            -22.9464   ZZ=            -21.9292
   XY=             -1.9255   XZ=              0.0000   YZ=             -0.0000

  Exact polarizability:  30.908   4.187  29.836  -0.000   0.000  17.601
 Approx polarizability:  24.593   0.570  27.634  -0.000   0.000  15.504

                      1                      2                      3
                     A"                     A'                     A"
 Frequencies --    365.6470               397.6917               522.4076
 Red. masses --      1.5563                 7.1553                 2.9001
 Frc consts  --      0.1226                 0.6668                 0.4663
 IR Inten    --     61.6313                 7.8672                25.1891

                      4                      5                      6
                     A'                     A'                     A'
 Frequencies --    712.4118               839.0468               972.6561
 Red. masses --     13.3908                12.8429                 9.7808
 Frc consts  --      4.0042                 5.3270                 5.4518
 IR Inten    --    216.2860                31.3138                12.7204

                      7                      8                      9
                     A'                     A'                     A'
 Frequencies --   1445.7865              1573.8364              3481.0358
 Red. masses --      1.3384                 5.5396                 1.0636
 Frc consts  --      1.6483                 8.0843                 7.5938
 IR Inten    --     81.0638               150.4659                44.3182

 - Thermochemistry -
 -------------------
 Temperature   298.150 Kelvin.  Pressure   1.00000 Atm.
 Atom     1 has atomic number  1 and mass   1.00783

 Molecular mass:    62.99564 amu.
 Principal axes and moments of inertia in atomic units:
                           1         2         3
     Eigenvalues --    84.40802 222.56281 306.97084
           X            0.79560  -0.60583   0.00000
           Y            0.60583   0.79560   0.00000
           Z            0.00000  -0.00000   1.00000
 This molecule is an asymmetric top.
 Rotational symmetry number  1.
 Rotational temperatures (Kelvin)      1.02613     0.38917     0.28216
 Rotational constants (GHZ):          21.38116     8.10891     5.87919
 Zero-point vibrational energy      61670.6 (Joules/Mol)
                                   14.73963 (Kcal/Mol)
 Warning -- explicit consideration of   3 degrees of freedom as
           vibrations may cause significant error
 Vibrational temperatures:    526.08   572.19   751.63  1025.00  1207.20
          (Kelvin)           1399.44  2080.16  2264.40  5008.43

 Zero-point correction=                           0.023489 (Hartree/Particle)
 Thermal correction to Energy=                    0.027412
 Thermal correction to Enthalpy=                  0.028356
 Thermal correction to Gibbs Free Energy=        -0.002472
 Sum of electronic and zero-point Energies=           -280.431706
 Sum of electronic and thermal Energies=              -280.427783
 Sum of electronic and thermal Enthalpies=            -280.426839
 Sum of electronic and thermal Free Energies=         -280.457667

                     E (Thermal)             CV                S
                      KCal/Mol        Cal/Mol-Kelvin    Cal/Mol-Kelvin
 Total                   17.201             12.131             64.882
 Electronic               0.000              0.000              0.000
 Translational            0.889              2.981             38.341
 Rotational               0.889              2.981             23.271
 Vibrational             15.424              6.169              3.271
 Vibration     1          0.739              1.543              1.098
 Vibration     2          0.764              1.475              0.971
 Vibration     3          0.877              1.200              0.604

                       ! Non-Optimized Parameters !

 1\1\GINC-N2174\Freq\RMP2-FC\Aug-CC-pVTZ\H1N1O3\CGAVINH\06-Mar-2022\1\\
 #p freq mp2/aug-cc-pvtz density=current\\title\\0,1\H\O,1,r1\O,2,r2,1,
 a1\N,3,r3,2,a2,1,d1,0\O,4,r4,3,a3,2,d2,0\\r1=0.98537664\r2=1.42673666\
 r3=1.38110764\r4=1.19478846\a1=99.54208995\a2=113.13777052\a3=114.3339
 2022\d1=0.\d2=0.\\Version=ES64L-G16RevB.01\State=1-A'\HF=-279.5061484\
 MP2=-280.455195\RMSD=4.465e-09\RMSF=1.032e-03\ZeroPoint=0.0234891\Ther
 mal=0.0274119\Dipole=-0.1067916,0.,-0.4132283\DipoleDeriv=0.3191689,0.
 ,0.0335853,0.,0.2955047,0.,-0.03385,0.,0.2025788,-0.5266685,0.,0.29182

 Normal termination of Gaussian 16 at Sun Mar  6 19:29:32 2022.
