 Gaussian 16, Revision B.01,
 Gaussian 16:  ES64L-G16RevB.01 20-Dec-2017

 ---------------------------------------
 #p freq mp2/aug-cc-pvtz density=current
 ---------------------------------------

 -----
 title
 -----
 Symbolic Z-matrix:
 Charge =  0 Multiplicity = 1

                         Standard orientation:
 ---------------------------------------------------------------------
 Center     Atomic      Atomic             Coordinates (Angstroms)
 Number     Number       Type             X           Y           Z
 ---------------------------------------------------------------------
      1          1           0        1.100410   -0.609486    0.000000
      2          8           0        1.312617    0.352769    0.000000
      3          8           0        0.000000    0.911888    0.000000
      4          7           0       -0.985674   -0.033019    0.000000
      5          8           0       -0.587703   -1.159579    0.000000
 ---------------------------------------------------------------------

 SCF Done:  E(RHF) =  -279.507657906     A.U. after   14 cycles
 E2 =    -0.9474938621D+00 EUMP2 =    -0.28045515176796D+03
 E2 =    -0.9474938621D+00 EUMP2 =    -0.28045515176796D+03

 The electronic state is 1-A'.
 Alpha  occ. eigenvalues --  -20.72243 -20.68358 -20.66916 -15.82409  -1.64838
 Alpha  occ. eigenvalues --   -1.50514  -1.29944  -0.95955  -0.83638  -0.76094
 Alpha  occ. eigenvalues --   -0.74363  -0.63797  -0.61820  -0.61691  -0.50482
 Alpha  occ. eigenvalues --   -0.49904
 Alpha virt. eigenvalues --    0.03500   0.06260   0.09515   0.10045   0.11971
 Alpha virt. eigenvalues --    0.12293   0.14887   0.15172   0.17744   0.18059
 Alpha virt. eigenvalues --    0.18967   0.21116   0.21664   0.24268   0.24642

 Mulliken charges:
               1
     1  H    0.278040
     2  O   -0.276435
     3  O    0.050226
     4  N    0.148668
     5  O   -0.200500
 Sum of Mulliken charges =  -0.00000

 Dipole moment (field-independent basis, Debye):
    X=              0.0889    Y=             -1.0224    Z=              0.0000  Tot=              1.0262
 Quadrupole moment (field-independent basis, Debye-Ang):
   XX=            -23.4326   YY=            -22.9074   ZZ=            -21.9077
   XY=             -2.0071   XZ=              0.0000   YZ=              0.0000

  Exact polarizability:  30.840   4.026  29.625   0.000   0.000  17.567
 Approx polarizability:  24.439   0.448  27.420  -0.000  -0.000  15.488

                      1                      2                      3
                     A"                     A'                     A"
 Frequencies --    360.3851               409.7380               526.9014
 Red. masses --      1.6015                 6.9541                 2.7658
 Frc consts  --      0.1225                 0.6879                 0.4524
 IR Inten    --     61.6423                 7.4066                26.9285

                      4                      5                      6
                     A'                     A'                     A'
 Frequencies --    768.8518               838.0849               975.2596
 Red. masses --     13.2390                12.6593                 9.5567
 Frc consts  --      4.6110                 5.2389                 5.3555
 IR Inten    --    197.8004                36.3436                14.4955

                      7                      8                      9
                     A'                     A'                     A'
 Frequencies --   1432.4993              1578.6453              3485.6602
 Red. masses --      1.2969                 6.7786                 1.0635
 Frc consts  --      1.5680                 9.9531                 7.6133
 IR Inten    --     81.1569               150.5439                45.5555

 - Thermochemistry -
 -------------------
 Temperature   298.150 Kelvin.  Pressure   1.00000 Atm.
 Atom     1 has atomic number  1 and mass   1.00783

 Molecular mass:    62.99564 amu.
 Principal axes and moments of inertia in atomic units:
                           1         2         3
     Eigenvalues --    84.50256 219.29182 303.79438
           X            0.80115  -0.59847   0.00000
           Y            0.59847   0.80115   0.00000
           Z            0.00000   0.00000   1.00000
 This molecule is an asymmetric top.
 Rotational symmetry number  1.
 Rotational temperatures (Kelvin)      1.02499     0.39497     0.28511
 Rotational constants (GHZ):          21.35724     8.22986     5.94067
 Zero-point vibrational energy      62062.4 (Joules/Mol)
                                   14.83327 (Kcal/Mol)
 Warning -- explicit consideration of   3 degrees of freedom as
           vibrations may cause significant error
 Vibrational temperatures:    518.51   589.52   758.09  1106.21  1205.82
          (Kelvin)           1403.18  2061.05  2271.32  5015.09

 Zero-point correction=                           0.023638 (Hartree/Particle)
 Thermal correction to Energy=                    0.027532
 Thermal correction to Enthalpy=                  0.028477
 Thermal correction to Gibbs Free Energy=        -0.002298
 Sum of electronic and zero-point Energies=           -280.431513
 Sum of electronic and thermal Energies=              -280.427619
 Sum of electronic and thermal Enthalpies=            -280.426675
 Sum of electronic and thermal Free Energies=         -280.457449

                     E (Thermal)             CV                S
                      KCal/Mol        Cal/Mol-Kelvin    Cal/Mol-Kelvin
 Total                   17.277             12.005             64.770
 Electronic               0.000              0.000              0.000
 Translational            0.889              2.981             38.341
 Rotational               0.889              2.981             23.247
 Vibrational             15.499              6.043              3.182
 Vibration     1          0.735              1.554              1.120
 Vibration     2          0.774              1.449              0.928
 Vibration     3          0.882              1.190              0.594

                       ! Non-Optimized Parameters !

 1\1\GINC-N2228\Freq\RMP2-FC\Aug-CC-pVTZ\H1N1O3\CGAVINH\06-Mar-2022\1\\
 #p freq mp2/aug-cc-pvtz density=current\\title\\0,1\H\O,1,r1\O,2,r2,1,
 a1\N,3,r3,2,a2,1,d1,0\O,4,r4,3,a3,2,d2,0\\r1=0.98537664\r2=1.42673666\
 r3=1.36543118\r4=1.19478846\a1=100.6355057\a2=113.13777052\a3=114.3339
 2022\d1=0.\d2=0.\\Version=ES64L-G16RevB.01\State=1-A'\HF=-279.5076579\
 MP2=-280.4551518\RMSD=4.011e-09\RMSF=2.193e-03\ZeroPoint=0.0236383\The
 rmal=0.0275323\Dipole=-0.1207787,0.,-0.3852561\DipoleDeriv=0.3207662,0
 .,0.0366077,0.,0.2982599,0.,-0.026497,0.,0.2065027,-0.5337161,0.,0.283

 Normal termination of Gaussian 16 at Sun Mar  6 19:12:25 2022.
