 Gaussian 16, Revision B.01,
 Gaussian 16:  ES64L-G16RevB.01 20-Dec-2017

 ---------------------------------------
 #p freq mp2/aug-cc-pvtz density=current
 ---------------------------------------

 -----
 title
 -----
 Symbolic Z-matrix:
 Charge =  0 Multiplicity = 1

                         Standard orientation:
 ---------------------------------------------------------------------
 Center     Atomic      Atomic             Coordinates (Angstroms)
 Number     Number       Type             X           Y           Z
 ---------------------------------------------------------------------
      1          1           0        1.545218    1.707577   -0.000000
      2          8           0        1.453862    0.742918   -0.000000
      3          8           0       -0.000000    0.687448   -0.000000
      4          7           0       -0.261633   -0.779487    0.000000
      5          8           0       -1.418085   -0.961762    0.000000
 ---------------------------------------------------------------------

 SCF Done:  E(RHF) =  -279.498433859     A.U. after   14 cycles
 E2 =    -0.9481059645D+00 EUMP2 =    -0.28044653982362D+03
 E2 =    -0.9481059645D+00 EUMP2 =    -0.28044653982362D+03

 The electronic state is 1-A'.
 Alpha  occ. eigenvalues --  -20.69167 -20.68559 -20.65614 -15.81790  -1.62313
 Alpha  occ. eigenvalues --   -1.49111  -1.24510  -0.95063  -0.77035  -0.75577
 Alpha  occ. eigenvalues --   -0.70689  -0.68093  -0.62192  -0.58770  -0.48185
 Alpha  occ. eigenvalues --   -0.47089
 Alpha virt. eigenvalues --    0.03049   0.06765   0.08533   0.10134   0.13377
 Alpha virt. eigenvalues --    0.13415   0.14474   0.15515   0.17894   0.19396
 Alpha virt. eigenvalues --    0.19965   0.20156   0.22160   0.23673   0.23703

 Mulliken charges:
               1
     1  H    0.249941
     2  O   -0.203736
     3  O   -0.167254
     4  N    0.300654
     5  O   -0.179606
 Sum of Mulliken charges =  -0.00000

 Dipole moment (field-independent basis, Debye):
    X=              0.3675    Y=              1.1782    Z=             -0.0000  Tot=              1.2342
 Quadrupole moment (field-independent basis, Debye-Ang):
   XX=            -22.4158   YY=            -18.4813   ZZ=            -22.0549
   XY=              3.3148   XZ=              0.0000   YZ=              0.0000

  Exact polarizability:  33.988   9.648  30.908  -0.000  -0.000  18.036
 Approx polarizability:  29.161   5.324  24.254  -0.000  -0.000  15.570

 ******    1 imaginary frequencies (negative Signs) ******

                      1                      2                      3
                     A"                     A"                     A'
 Frequencies --   -277.7009               241.5413               330.2498
 Red. masses --      1.1323                10.9106                 8.4911
 Frc consts  --      0.0514                 0.3750                 0.5456
 IR Inten    --    125.4413                 0.6517                13.5456

                      4                      5                      6
                     A'                     A'                     A'
 Frequencies --    393.7536               768.0337               962.2403
 Red. masses --     12.5654                13.1783                15.5402
 Frc consts  --      1.1478                 4.5800                 8.4776
 IR Inten    --    213.8970               149.8696                19.6351

                      7                      8                      9
                     A'                     A'                     A'
 Frequencies --   1365.4617              1663.8888              3777.9742
 Red. masses --      1.1294                13.3472                 1.0676
 Frc consts  --      1.2407                21.7715                 8.9776
 IR Inten    --    147.4057               156.3207                82.9824

 - Thermochemistry -
 -------------------
 Temperature   298.150 Kelvin.  Pressure   1.00000 Atm.
 Atom     1 has atomic number  1 and mass   1.00783

 Molecular mass:    62.99564 amu.
 Principal axes and moments of inertia in atomic units:
                           1         2         3
     Eigenvalues --    33.63393 365.91316 399.54709
           X            0.80223  -0.59701   0.00000
           Y            0.59701   0.80223   0.00000
           Z           -0.00000   0.00000   1.00000
 This molecule is an asymmetric top.
 Rotational symmetry number  1.
 Rotational temperatures (Kelvin)      2.57519     0.23671     0.21678
 Rotational constants (GHZ):          53.65835     4.93216     4.51697
    1 imaginary frequencies ignored.
 Zero-point vibrational energy      56841.4 (Joules/Mol)
                                   13.58543 (Kcal/Mol)
 Warning -- explicit consideration of   3 degrees of freedom as
           vibrations may cause significant error
 Vibrational temperatures:    347.52   475.16   566.52  1105.03  1384.45
          (Kelvin)           1964.59  2393.96  5435.66

 Zero-point correction=                           0.021650 (Hartree/Particle)
 Thermal correction to Energy=                    0.025822
 Thermal correction to Enthalpy=                  0.026766
 Thermal correction to Gibbs Free Energy=        -0.004526
 Sum of electronic and zero-point Energies=           -280.424890
 Sum of electronic and thermal Energies=              -280.420718
 Sum of electronic and thermal Enthalpies=            -280.419774
 Sum of electronic and thermal Free Energies=         -280.451066

                     E (Thermal)             CV                S
                      KCal/Mol        Cal/Mol-Kelvin    Cal/Mol-Kelvin
 Total                   16.203             12.123             65.860
 Electronic               0.000              0.000              0.000
 Translational            0.889              2.981             38.341
 Rotational               0.889              2.981             23.113
 Vibrational             14.426              6.161              4.407
 Vibration     1          0.658              1.777              1.791
 Vibration     2          0.713              1.615              1.259
 Vibration     3          0.761              1.484              0.986

                       ! Non-Optimized Parameters !

 1\1\GINC-N2128\Freq\RMP2-FC\Aug-CC-pVTZ\H1N1O3\CGAVINH\21-Feb-2022\1\\
 #p freq mp2/aug-cc-pvtz density=current\\title\\0,1\H\O,1,r1\O,2,r2,1,
 a1\N,3,r3,2,a2,1,d1,0\O,4,r4,3,a3,2,d2,0\\r1=0.96897556\r2=1.45491931\
 r3=1.49008445\r4=1.17072885\a1=97.59494903\a2=102.29752444\a3=109.0695
 5123\d1=180.\d2=180.\\Version=ES64L-G16RevB.01\State=1-A'\HF=-279.4984
 339\MP2=-280.4465398\RMSD=4.267e-09\RMSF=3.162e-03\ZeroPoint=0.0216498
 \Thermal=0.0258217\Dipole=-0.1002236,0.,-0.4751238\DipoleDeriv=0.26363
 32,0.,0.0453196,0.,0.3546231,0.,0.0820965,0.,0.2756372,-0.3340846,0.,-

 Normal termination of Gaussian 16 at Mon Feb 21 20:20:55 2022.
