 Gaussian 16, Revision B.01,
 Gaussian 16:  ES64L-G16RevB.01 20-Dec-2017

 ---------------------------------------
 #p freq mp2/aug-cc-pvtz density=current
 ---------------------------------------

 -----
 title
 -----
 Symbolic Z-matrix:
 Charge =  0 Multiplicity = 1

                         Standard orientation:
 ---------------------------------------------------------------------
 Center     Atomic      Atomic             Coordinates (Angstroms)
 Number     Number       Type             X           Y           Z
 ---------------------------------------------------------------------
      1          1           0        1.106153   -0.612356    0.000000
      2          8           0        1.315890    0.366083    0.000000
      3          8           0       -0.000000    0.917456    0.000000
      4          7           0       -0.991340   -0.044159    0.000000
      5          8           0       -0.586736   -1.168355    0.000000
 ---------------------------------------------------------------------

 SCF Done:  E(RHF) =  -279.505333050     A.U. after   14 cycles
 E2 =    -0.9497322814D+00 EUMP2 =    -0.28045506533114D+03
 E2 =    -0.9497322814D+00 EUMP2 =    -0.28045506533114D+03

 The electronic state is 1-A'.
 Alpha  occ. eigenvalues --  -20.71958 -20.68744 -20.66875 -15.82602  -1.64404
 Alpha  occ. eigenvalues --   -1.50389  -1.29103  -0.95945  -0.83403  -0.75874
 Alpha  occ. eigenvalues --   -0.73973  -0.63389  -0.61830  -0.61805  -0.50487
 Alpha  occ. eigenvalues --   -0.49686
 Alpha virt. eigenvalues --    0.03495   0.06017   0.09521   0.10033   0.11983
 Alpha virt. eigenvalues --    0.12264   0.14905   0.15192   0.17778   0.18040
 Alpha virt. eigenvalues --    0.18982   0.21082   0.21655   0.24305   0.24639

 Mulliken charges:
               1
     1  H    0.286169
     2  O   -0.283770
     3  O    0.037965
     4  N    0.154969
     5  O   -0.195333
 Sum of Mulliken charges =  -0.00000

 Dipole moment (field-independent basis, Debye):
    X=              0.0468    Y=             -1.1080    Z=              0.0000  Tot=              1.1090
 Quadrupole moment (field-independent basis, Debye-Ang):
   XX=            -23.4009   YY=            -22.9196   ZZ=            -21.9524
   XY=             -1.9881   XZ=              0.0000   YZ=              0.0000

  Exact polarizability:  31.017   4.141  29.963   0.000   0.000  17.656
 Approx polarizability:  24.642   0.545  27.793  -0.000  -0.000  15.538

                      1                      2                      3
                     A'                     A"                     A"
 Frequencies --    400.6102               453.8658               609.6373
 Red. masses --      7.1828                 5.4500                 1.2472
 Frc consts  --      0.6792                 0.6615                 0.2731
 IR Inten    --      7.6506                14.3470                72.5088

                      4                      5                      6
                     A'                     A'                     A'
 Frequencies --    712.5331               835.8483               975.2854
 Red. masses --     13.6467                12.1929                10.6345
 Frc consts  --      4.0821                 5.0189                 5.9598
 IR Inten    --    215.4296                30.4986                10.7678

                      7                      8                      9
                     A'                     A'                     A'
 Frequencies --   1455.2178              1575.1245              3297.6205
 Red. masses --      1.3667                 4.9770                 1.0631
 Frc consts  --      1.7052                 7.2752                 6.8114
 IR Inten    --     82.7295               153.6346                44.6493

 - Thermochemistry -
 -------------------
 Temperature   298.150 Kelvin.  Pressure   1.00000 Atm.
 Atom     1 has atomic number  1 and mass   1.00783

 Molecular mass:    62.99564 amu.
 Principal axes and moments of inertia in atomic units:
                           1         2         3
     Eigenvalues --    84.61185 222.56473 307.17659
           X            0.79612  -0.60514   0.00000
           Y            0.60514   0.79612   0.00000
           Z            0.00000   0.00000   1.00000
 This molecule is an asymmetric top.
 Rotational symmetry number  1.
 Rotational temperatures (Kelvin)      1.02366     0.38916     0.28197
 Rotational constants (GHZ):          21.32965     8.10884     5.87526
 Zero-point vibrational energy      61701.8 (Joules/Mol)
                                   14.74710 (Kcal/Mol)
 Warning -- explicit consideration of   3 degrees of freedom as
           vibrations may cause significant error
 Vibrational temperatures:    576.39   653.01   877.13  1025.18  1202.60
          (Kelvin)           1403.22  2093.73  2266.25  4744.54

 Zero-point correction=                           0.023501 (Hartree/Particle)
 Thermal correction to Energy=                    0.027284
 Thermal correction to Enthalpy=                  0.028228
 Thermal correction to Gibbs Free Energy=        -0.002366
 Sum of electronic and zero-point Energies=           -280.431564
 Sum of electronic and thermal Energies=              -280.427781
 Sum of electronic and thermal Enthalpies=            -280.426837
 Sum of electronic and thermal Free Energies=         -280.457431

                     E (Thermal)             CV                S
                      KCal/Mol        Cal/Mol-Kelvin    Cal/Mol-Kelvin
 Total                   17.121             11.743             64.390
 Electronic               0.000              0.000              0.000
 Translational            0.889              2.981             38.341
 Rotational               0.889              2.981             23.274
 Vibrational             15.344              5.782              2.776
 Vibration     1          0.766              1.469              0.960
 Vibration     2          0.812              1.352              0.784
 Vibration     3          0.969              1.011              0.433

                       ! Non-Optimized Parameters !

 1\1\GINC-N2109\Freq\RMP2-FC\Aug-CC-pVTZ\H1N1O3\CGAVINH\06-Mar-2022\1\\
 #p freq mp2/aug-cc-pvtz density=current\\title\\0,1\H\O,1,r1\O,2,r2,1,
 a1\N,3,r3,2,a2,1,d1,0\O,4,r4,3,a3,2,d2,0\\r1=1.00066575\r2=1.42673666\
 r3=1.38110764\r4=1.19478846\a1=100.6355057\a2=113.13777052\a3=114.3339
 2022\d1=0.\d2=0.\\Version=ES64L-G16RevB.01\State=1-A'\HF=-279.505333\M
 P2=-280.4550653\RMSD=4.638e-09\RMSF=4.270e-03\ZeroPoint=0.023501\Therm
 al=0.027284\Dipole=-0.1093601,0.,-0.4223947\DipoleDeriv=0.322806,0.,0.
 0356352,0.,0.2957153,0.,-0.0321011,0.,0.2033563,-0.5295462,0.,0.281323

 Normal termination of Gaussian 16 at Sun Mar  6 18:50:59 2022.
