 Gaussian 16, Revision B.01,
 Gaussian 16:  ES64L-G16RevB.01 20-Dec-2017

 ---------------------------------------
 #p freq mp2/aug-cc-pvtz density=current
 ---------------------------------------

 -----
 title
 -----
 Symbolic Z-matrix:
 Charge =  0 Multiplicity = 1

                         Standard orientation:
 ---------------------------------------------------------------------
 Center     Atomic      Atomic             Coordinates (Angstroms)
 Number     Number       Type             X           Y           Z
 ---------------------------------------------------------------------
      1          1           0        1.118610   -0.589042    0.000000
      2          8           0        1.319240    0.375694    0.000000
      3          8           0        0.000000    0.919001    0.000000
      4          7           0       -0.985435   -0.048664    0.000000
      5          8           0       -0.596811   -1.178483    0.000000
 ---------------------------------------------------------------------

 SCF Done:  E(RHF) =  -279.506328536     A.U. after   14 cycles
 E2 =    -0.9487747934D+00 EUMP2 =    -0.28045510332950D+03
 E2 =    -0.9487747934D+00 EUMP2 =    -0.28045510332950D+03

 The electronic state is 1-A'.
 Alpha  occ. eigenvalues --  -20.72099 -20.68782 -20.66902 -15.82527  -1.64285
 Alpha  occ. eigenvalues --   -1.50675  -1.29428  -0.96072  -0.83321  -0.75869
 Alpha  occ. eigenvalues --   -0.73978  -0.63899  -0.61981  -0.61913  -0.50264
 Alpha  occ. eigenvalues --   -0.49816
 Alpha virt. eigenvalues --    0.03496   0.06091   0.09511   0.10056   0.11975
 Alpha virt. eigenvalues --    0.12268   0.14894   0.15185   0.17770   0.18037
 Alpha virt. eigenvalues --    0.18955   0.21111   0.21674   0.24260   0.24635

 Mulliken charges:
               1
     1  H    0.278414
     2  O   -0.274155
     3  O    0.037694
     4  N    0.154475
     5  O   -0.196428
 Sum of Mulliken charges =  -0.00000

 Dipole moment (field-independent basis, Debye):
    X=              0.0794    Y=             -1.0957    Z=              0.0000  Tot=              1.0986
 Quadrupole moment (field-independent basis, Debye-Ang):
   XX=            -23.4034   YY=            -22.9510   ZZ=            -21.9378
   XY=             -1.9641   XZ=              0.0000   YZ=              0.0000

  Exact polarizability:  30.962   4.235  30.006   0.000   0.000  17.644
 Approx polarizability:  24.507   0.643  27.810  -0.000  -0.000  15.527

                      1                      2                      3
                     A"                     A'                     A"
 Frequencies --    351.2525               380.7940               516.3288
 Red. masses --      1.5677                 7.1298                 2.8777
 Frc consts  --      0.1140                 0.6091                 0.4520
 IR Inten    --     62.7400                 7.6135                25.7709

                      4                      5                      6
                     A'                     A'                     A'
 Frequencies --    702.8075               839.2538               967.8008
 Red. masses --     13.1731                12.3997                 9.9732
 Frc consts  --      3.8336                 5.1458                 5.5037
 IR Inten    --    215.5042                34.6020                13.6234

                      7                      8                      9
                     A'                     A'                     A'
 Frequencies --   1439.9586              1568.9668              3489.9903
 Red. masses --      1.3030                 6.3438                 1.0641
 Frc consts  --      1.5918                 9.2008                 7.6361
 IR Inten    --     78.8944               152.7033                40.8198

 - Thermochemistry -
 -------------------
 Temperature   298.150 Kelvin.  Pressure   1.00000 Atm.
 Atom     1 has atomic number  1 and mass   1.00783

 Molecular mass:    62.99564 amu.
 Principal axes and moments of inertia in atomic units:
                           1         2         3
     Eigenvalues --    84.02103 225.70406 309.72509
           X            0.79134  -0.61137   0.00000
           Y            0.61137   0.79134   0.00000
           Z            0.00000   0.00000   1.00000
 This molecule is an asymmetric top.
 Rotational symmetry number  1.
 Rotational temperatures (Kelvin)      1.03086     0.38375     0.27965
 Rotational constants (GHZ):          21.47964     7.99605     5.82691
 Zero-point vibrational energy      61351.4 (Joules/Mol)
                                   14.66334 (Kcal/Mol)
 Warning -- explicit consideration of   3 degrees of freedom as
           vibrations may cause significant error
 Vibrational temperatures:    505.37   547.88   742.88  1011.18  1207.50
          (Kelvin)           1392.45  2071.78  2257.39  5021.32

 Zero-point correction=                           0.023368 (Hartree/Particle)
 Thermal correction to Energy=                    0.027332
 Thermal correction to Enthalpy=                  0.028276
 Thermal correction to Gibbs Free Energy=        -0.002634
 Sum of electronic and zero-point Energies=           -280.431736
 Sum of electronic and thermal Energies=              -280.427772
 Sum of electronic and thermal Enthalpies=            -280.426827
 Sum of electronic and thermal Free Energies=         -280.457737

                     E (Thermal)             CV                S
                      KCal/Mol        Cal/Mol-Kelvin    Cal/Mol-Kelvin
 Total                   17.151             12.236             65.056
 Electronic               0.000              0.000              0.000
 Translational            0.889              2.981             38.341
 Rotational               0.889              2.981             23.289
 Vibrational             15.374              6.275              3.426
 Vibration     1          0.728              1.573              1.161
 Vibration     2          0.751              1.511              1.036
 Vibration     3          0.871              1.214              0.619

                       ! Non-Optimized Parameters !

 1\1\GINC-N2219\Freq\RMP2-FC\Aug-CC-pVTZ\H1N1O3\CGAVINH\06-Mar-2022\1\\
 #p freq mp2/aug-cc-pvtz density=current\\title\\0,1\H\O,1,r1\O,2,r2,1,
 a1\N,3,r3,2,a2,1,d1,0\O,4,r4,3,a3,2,d2,0\\r1=0.98537664\r2=1.42673666\
 r3=1.38110764\r4=1.19478846\a1=100.6355057\a2=113.13777052\a3=115.4970
 0618\d1=0.\d2=0.\\Version=ES64L-G16RevB.01\State=1-A'\HF=-279.5063285\
 MP2=-280.4551033\RMSD=4.304e-09\RMSF=2.597e-03\ZeroPoint=0.0233675\The
 rmal=0.0273318\Dipole=-0.1183739,0.,-0.4157056\DipoleDeriv=0.3141793,0
 .,0.0395048,0.,0.2985192,0.,-0.021251,0.,0.1953947,-0.5311258,0.,0.279

 Normal termination of Gaussian 16 at Sun Mar  6 19:43:01 2022.
