 Gaussian 16, Revision B.01,
 Gaussian 16:  ES64L-G16RevB.01 20-Dec-2017

 ---------------------------------------
 #p freq mp2/aug-cc-pvtz density=current
 ---------------------------------------

 -----
 title
 -----
 Symbolic Z-matrix:
 Charge =  0 Multiplicity = 1

                         Standard orientation:
 ---------------------------------------------------------------------
 Center     Atomic      Atomic             Coordinates (Angstroms)
 Number     Number       Type             X           Y           Z
 ---------------------------------------------------------------------
      1          1           0        1.119545   -0.610511    0.000000
      2          8           0        1.331905    0.351711    0.000000
      3          8           0        0.000000    0.919295    0.000000
      4          7           0       -0.997142   -0.036303    0.000000
      5          8           0       -0.599349   -1.162927    0.000000
 ---------------------------------------------------------------------

 SCF Done:  E(RHF) =  -279.504927277     A.U. after   14 cycles
 E2 =    -0.9501215719D+00 EUMP2 =    -0.28045504884925D+03
 E2 =    -0.9501215719D+00 EUMP2 =    -0.28045504884925D+03

 The electronic state is 1-A'.
 Alpha  occ. eigenvalues --  -20.71968 -20.68693 -20.67029 -15.82628  -1.64112
 Alpha  occ. eigenvalues --   -1.49810  -1.29644  -0.95925  -0.83092  -0.75747
 Alpha  occ. eigenvalues --   -0.73712  -0.64036  -0.61626  -0.61377  -0.50393
 Alpha  occ. eigenvalues --   -0.50098
 Alpha virt. eigenvalues --    0.03481   0.06037   0.09506   0.10008   0.11988
 Alpha virt. eigenvalues --    0.12210   0.14780   0.15074   0.17758   0.18064
 Alpha virt. eigenvalues --    0.18991   0.21088   0.21650   0.23283   0.24633

 Mulliken charges:
               1
     1  H    0.281296
     2  O   -0.276703
     3  O    0.032197
     4  N    0.157846
     5  O   -0.194636
 Sum of Mulliken charges =  -0.00000

 Dipole moment (field-independent basis, Debye):
    X=              0.0154    Y=             -1.1205    Z=              0.0000  Tot=              1.1206
 Quadrupole moment (field-independent basis, Debye-Ang):
   XX=            -23.3800   YY=            -22.9058   ZZ=            -21.9612
   XY=             -2.0204   XZ=              0.0000   YZ=              0.0000

  Exact polarizability:  31.292   4.031  29.853   0.000   0.000  17.679
 Approx polarizability:  25.011   0.360  27.747  -0.000  -0.000  15.546

                      1                      2                      3
                     A"                     A'                     A"
 Frequencies --    352.9152               393.5266               521.5214
 Red. masses --      1.5397                 7.0888                 2.9729
 Frc consts  --      0.1130                 0.6468                 0.4764
 IR Inten    --     63.7676                 7.4817                25.1507

                      4                      5                      6
                     A'                     A'                     A'
 Frequencies --    704.6544               796.8921               949.8321
 Red. masses --     13.2497                13.4345                 9.0509
 Frc consts  --      3.8762                 5.0265                 4.8110
 IR Inten    --    207.1032                35.5979                13.6831

                      7                      8                      9
                     A'                     A'                     A'
 Frequencies --   1414.0069              1565.9171              3496.2568
 Red. masses --      1.2636                 7.7496                 1.0641
 Frc consts  --      1.4885                11.1961                 7.6638
 IR Inten    --     81.1523               148.0861                41.5466

 - Thermochemistry -
 -------------------
 Temperature   298.150 Kelvin.  Pressure   1.00000 Atm.
 Atom     1 has atomic number  1 and mass   1.00783

 Molecular mass:    62.99564 amu.
 Principal axes and moments of inertia in atomic units:
                           1         2         3
     Eigenvalues --    85.76329 224.21362 309.97691
           X            0.80734  -0.59008   0.00000
           Y            0.59008   0.80734   0.00000
           Z            0.00000   0.00000   1.00000
 This molecule is an asymmetric top.
 Rotational symmetry number  1.
 Rotational temperatures (Kelvin)      1.00992     0.38630     0.27942
 Rotational constants (GHZ):          21.04328     8.04920     5.82218
 Zero-point vibrational energy      60982.8 (Joules/Mol)
                                   14.57523 (Kcal/Mol)
 Warning -- explicit consideration of   3 degrees of freedom as
           vibrations may cause significant error
 Vibrational temperatures:    507.77   566.20   750.35  1013.84  1146.55
          (Kelvin)           1366.60  2034.44  2253.01  5030.33

 Zero-point correction=                           0.023227 (Hartree/Particle)
 Thermal correction to Energy=                    0.027188
 Thermal correction to Enthalpy=                  0.028132
 Thermal correction to Gibbs Free Energy=        -0.002771
 Sum of electronic and zero-point Energies=           -280.431822
 Sum of electronic and thermal Energies=              -280.427861
 Sum of electronic and thermal Enthalpies=            -280.426917
 Sum of electronic and thermal Free Energies=         -280.457820

                     E (Thermal)             CV                S
                      KCal/Mol        Cal/Mol-Kelvin    Cal/Mol-Kelvin
 Total                   17.061             12.289             65.041
 Electronic               0.000              0.000              0.000
 Translational            0.889              2.981             38.341
 Rotational               0.889              2.981             23.304
 Vibrational             15.283              6.328              3.397
 Vibration     1          0.729              1.569              1.153
 Vibration     2          0.761              1.484              0.987
 Vibration     3          0.876              1.202              0.606

                       ! Non-Optimized Parameters !

 1\1\GINC-N2110\Freq\RMP2-FC\Aug-CC-pVTZ\H1N1O3\CGAVINH\06-Mar-2022\1\\
 #p freq mp2/aug-cc-pvtz density=current\\title\\0,1\H\O,1,r1\O,2,r2,1,
 a1\N,3,r3,2,a2,1,d1,0\O,4,r4,3,a3,2,d2,0\\r1=0.98537664\r2=1.44779857\
 r3=1.38110764\r4=1.19478846\a1=100.6355057\a2=113.13777052\a3=114.3339
 2022\d1=0.\d2=0.\\Version=ES64L-G16RevB.01\State=1-A'\HF=-279.5049273\
 MP2=-280.4550488\RMSD=4.829e-09\RMSF=3.110e-03\ZeroPoint=0.0232271\The
 rmal=0.0271876\Dipole=-0.1009038,0.,-0.4291623\DipoleDeriv=0.3166958,0
 .,0.0371047,0.,0.299009,0.,-0.0177744,0.,0.197203,-0.5326201,0.,0.2618

 Normal termination of Gaussian 16 at Sun Mar  6 18:59:53 2022.
