 Gaussian 16, Revision B.01,
 Gaussian 16:  ES64L-G16RevB.01 20-Dec-2017

 ---------------------------------------
 #p freq mp2/aug-cc-pvtz density=current
 ---------------------------------------

 -----
 title
 -----
 Symbolic Z-matrix:
 Charge =  0 Multiplicity = 1

                         Standard orientation:
 ---------------------------------------------------------------------
 Center     Atomic      Atomic             Coordinates (Angstroms)
 Number     Number       Type             X           Y           Z
 ---------------------------------------------------------------------
      1          1           0        1.148338   -0.607301    0.000000
      2          8           0        1.315052    0.363871    0.000000
      3          8           0       -0.000000    0.917237    0.000000
      4          7           0       -0.992797   -0.042874    0.000000
      5          8           0       -0.589897   -1.167681    0.000000
 ---------------------------------------------------------------------

 SCF Done:  E(RHF) =  -279.506686322     A.U. after   14 cycles
 E2 =    -0.9483298061D+00 EUMP2 =    -0.28045501612786D+03
 E2 =    -0.9483298061D+00 EUMP2 =    -0.28045501612786D+03

 The electronic state is 1-A'.
 Alpha  occ. eigenvalues --  -20.72015 -20.68584 -20.66762 -15.82485  -1.64244
 Alpha  occ. eigenvalues --   -1.50379  -1.29357  -0.96044  -0.83262  -0.75805
 Alpha  occ. eigenvalues --   -0.73909  -0.63672  -0.61811  -0.61735  -0.50315
 Alpha  occ. eigenvalues --   -0.49724
 Alpha virt. eigenvalues --    0.03461   0.06126   0.09524   0.10045   0.12018
 Alpha virt. eigenvalues --    0.12259   0.14914   0.15091   0.17776   0.18110
 Alpha virt. eigenvalues --    0.19000   0.21134   0.21635   0.24277   0.24641

 Mulliken charges:
               1
     1  H    0.283899
     2  O   -0.273540
     3  O    0.036970
     4  N    0.151265
     5  O   -0.198594
 Sum of Mulliken charges =  -0.00000

 Dipole moment (field-independent basis, Debye):
    X=              0.1109    Y=             -1.1145    Z=              0.0000  Tot=              1.1200
 Quadrupole moment (field-independent basis, Debye-Ang):
   XX=            -23.2800   YY=            -22.9332   ZZ=            -21.9426
   XY=             -2.0832   XZ=              0.0000   YZ=              0.0000

  Exact polarizability:  30.957   4.042  29.898   0.000   0.000  17.660
 Approx polarizability:  24.496   0.404  27.717  -0.000  -0.000  15.540

                      1                      2                      3
                     A"                     A'                     A"
 Frequencies --    318.2737               396.1624               524.5401
 Red. masses --      1.5327                 6.8731                 3.0267
 Frc consts  --      0.0915                 0.6356                 0.4907
 IR Inten    --     66.6074                 7.5132                25.0879

                      4                      5                      6
                     A'                     A'                     A'
 Frequencies --    708.8489               831.3644               967.5127
 Red. masses --     13.1945                11.3371                 9.7550
 Frc consts  --      3.9062                 4.6167                 5.3801
 IR Inten    --    218.7486                30.0207                12.7314

                      7                      8                      9
                     A'                     A'                     A'
 Frequencies --   1407.6299              1564.5498              3500.8536
 Red. masses --      1.2679                 8.3057                 1.0641
 Frc consts  --      1.4802                11.9785                 7.6840
 IR Inten    --     77.8311               149.2129                40.4694

 - Thermochemistry -
 -------------------
 Temperature   298.150 Kelvin.  Pressure   1.00000 Atm.
 Atom     1 has atomic number  1 and mass   1.00783

 Molecular mass:    62.99564 amu.
 Principal axes and moments of inertia in atomic units:
                           1         2         3
     Eigenvalues --    84.79366 222.71859 307.51224
           X            0.79796  -0.60272   0.00000
           Y            0.60272   0.79796   0.00000
           Z            0.00000   0.00000   1.00000
 This molecule is an asymmetric top.
 Rotational symmetry number  1.
 Rotational temperatures (Kelvin)      1.02147     0.38889     0.28166
 Rotational constants (GHZ):          21.28392     8.10324     5.86884
 Zero-point vibrational energy      61127.6 (Joules/Mol)
                                   14.60985 (Kcal/Mol)
 Warning -- explicit consideration of   3 degrees of freedom as
           vibrations may cause significant error
 Vibrational temperatures:    457.92   569.99   754.70  1019.88  1196.15
          (Kelvin)           1392.03  2025.27  2251.04  5036.95

 Zero-point correction=                           0.023282 (Hartree/Particle)
 Thermal correction to Energy=                    0.027264
 Thermal correction to Enthalpy=                  0.028208
 Thermal correction to Gibbs Free Energy=        -0.002735
 Sum of electronic and zero-point Energies=           -280.431734
 Sum of electronic and thermal Energies=              -280.427752
 Sum of electronic and thermal Enthalpies=            -280.426808
 Sum of electronic and thermal Free Energies=         -280.457751

                     E (Thermal)             CV                S
                      KCal/Mol        Cal/Mol-Kelvin    Cal/Mol-Kelvin
 Total                   17.108             12.264             65.126
 Electronic               0.000              0.000              0.000
 Translational            0.889              2.981             38.341
 Rotational               0.889              2.981             23.278
 Vibrational             15.331              6.302              3.507
 Vibration     1          0.705              1.639              1.319
 Vibration     2          0.763              1.478              0.977
 Vibration     3          0.879              1.196              0.600

                       ! Non-Optimized Parameters !

 1\1\GINC-N2095\Freq\RMP2-FC\Aug-CC-pVTZ\H1N1O3\CGAVINH\06-Mar-2022\1\\
 #p freq mp2/aug-cc-pvtz density=current\\title\\0,1\H\O,1,r1\O,2,r2,1,
 a1\N,3,r3,2,a2,1,d1,0\O,4,r4,3,a3,2,d2,0\\r1=0.98537664\r2=1.42673666\
 r3=1.38110764\r4=1.19478846\a1=103.08045764\a2=113.13777052\a3=114.333
 92022\d1=0.\d2=0.\\Version=ES64L-G16RevB.01\State=1-A'\HF=-279.5066863
 \MP2=-280.4550161\RMSD=4.332e-09\RMSF=2.311e-03\ZeroPoint=0.0232823\Th
 ermal=0.027264\Dipole=-0.1171754,0.,-0.4247914\DipoleDeriv=0.3107356,0
 .,0.0467228,0.,0.3038081,0.,-0.0030348,0.,0.195641,-0.5310483,0.,0.258

 Normal termination of Gaussian 16 at Sun Mar  6 19:26:33 2022.
