 Gaussian 16, Revision B.01,
 Gaussian 16:  ES64L-G16RevB.01 20-Dec-2017

 ---------------------------------------
 #p freq mp2/aug-cc-pvtz density=current
 ---------------------------------------

 -----
 title
 -----
 Symbolic Z-matrix:
 Charge =  0 Multiplicity = 1

                         Standard orientation:
 ---------------------------------------------------------------------
 Center     Atomic      Atomic             Coordinates (Angstroms)
 Number     Number       Type             X           Y           Z
 ---------------------------------------------------------------------
      1          1           0        1.112234   -0.583634    0.000000
      2          8           0        1.315769    0.364861    0.000000
      3          8           0        0.000000    0.916521    0.000000
      4          7           0       -0.991550   -0.044877    0.000000
      5          8           0       -0.587192   -1.169161    0.000000
 ---------------------------------------------------------------------

 SCF Done:  E(RHF) =  -279.507153546     A.U. after   14 cycles
 E2 =    -0.9478967310D+00 EUMP2 =    -0.28045505027736D+03
 E2 =    -0.9478967310D+00 EUMP2 =    -0.28045505027736D+03

 The electronic state is 1-A'.
 Alpha  occ. eigenvalues --  -20.72003 -20.68710 -20.66774 -15.82603  -1.64457
 Alpha  occ. eigenvalues --   -1.50649  -1.29661  -0.96131  -0.83541  -0.75912
 Alpha  occ. eigenvalues --   -0.74023  -0.64080  -0.61920  -0.61872  -0.50455
 Alpha  occ. eigenvalues --   -0.49816
 Alpha virt. eigenvalues --    0.03518   0.06032   0.09503   0.10042   0.11960
 Alpha virt. eigenvalues --    0.12256   0.14959   0.15215   0.17727   0.18027
 Alpha virt. eigenvalues --    0.18974   0.21120   0.21686   0.24203   0.24631

 Mulliken charges:
               1
     1  H    0.268371
     2  O   -0.263455
     3  O    0.037869
     4  N    0.153192
     5  O   -0.195977
 Sum of Mulliken charges =  -0.00000

 Dipole moment (field-independent basis, Debye):
    X=              0.0562    Y=             -1.0801    Z=              0.0000  Tot=              1.0816
 Quadrupole moment (field-independent basis, Debye-Ang):
   XX=            -23.3566   YY=            -22.9634   ZZ=            -21.9142
   XY=             -1.9602   XZ=              0.0000   YZ=              0.0000

  Exact polarizability:  30.828   4.143  29.751   0.000   0.000  17.583
 Approx polarizability:  24.483   0.493  27.530  -0.000  -0.000  15.492

 ******    1 imaginary frequencies (negative Signs) ******

                      1                      2                      3
                     A"                     A'                     A"
 Frequencies --   -232.6760               392.2404               498.3426
 Red. masses --      1.1803                 6.8523                 7.1739
 Frc consts  --      0.0376                 0.6211                 1.0497
 IR Inten    --     83.9914                 8.0594                 5.8090

                      4                      5                      6
                     A'                     A'                     A'
 Frequencies --    709.6816               837.7081               964.3786
 Red. masses --     12.9069                12.6174                 8.6770
 Frc consts  --      3.8300                 5.2168                 4.7546
 IR Inten    --    219.0486                30.7692                15.5719

                      7                      8                      9
                     A'                     A'                     A'
 Frequencies --   1404.1472              1566.5218              3685.5288
 Red. masses --      1.2788                 8.1628                 1.0643
 Frc consts  --      1.4855                11.8021                 8.5173
 IR Inten    --     75.6728               147.7197                40.9274

 - Thermochemistry -
 -------------------
 Temperature   298.150 Kelvin.  Pressure   1.00000 Atm.
 Atom     1 has atomic number  1 and mass   1.00783

 Molecular mass:    62.99564 amu.
 Principal axes and moments of inertia in atomic units:
                           1         2         3
     Eigenvalues --    84.44470 222.65318 307.09788
           X            0.79651  -0.60463   0.00000
           Y            0.60463   0.79651   0.00000
           Z            0.00000   0.00000   1.00000
 This molecule is an asymmetric top.
 Rotational symmetry number  1.
 Rotational temperatures (Kelvin)      1.02569     0.38901     0.28204
 Rotational constants (GHZ):          21.37187     8.10562     5.87676
    1 imaginary frequencies ignored.
 Zero-point vibrational energy      60163.5 (Joules/Mol)
                                   14.37942 (Kcal/Mol)
 Warning -- explicit consideration of   2 degrees of freedom as
           vibrations may cause significant error
 Vibrational temperatures:    564.35   717.00  1021.07  1205.28  1387.53
          (Kelvin)           2020.25  2253.88  5302.65

 Zero-point correction=                           0.022915 (Hartree/Particle)
 Thermal correction to Energy=                    0.026520
 Thermal correction to Enthalpy=                  0.027464
 Thermal correction to Gibbs Free Energy=        -0.002884
 Sum of electronic and zero-point Energies=           -280.432135
 Sum of electronic and thermal Energies=              -280.428530
 Sum of electronic and thermal Enthalpies=            -280.427586
 Sum of electronic and thermal Free Energies=         -280.457935

                     E (Thermal)             CV                S
                      KCal/Mol        Cal/Mol-Kelvin    Cal/Mol-Kelvin
 Total                   16.642             10.685             63.875
 Electronic               0.000              0.000              0.000
 Translational            0.889              2.981             38.341
 Rotational               0.889              2.981             23.272
 Vibrational             14.864              4.723              2.262
 Vibration     1          0.760              1.487              0.992
 Vibration     2          0.854              1.254              0.662

                       ! Non-Optimized Parameters !

 1\1\GINC-N2109\Freq\RMP2-FC\Aug-CC-pVTZ\H1N1O3\CGAVINH\06-Mar-2022\1\\
 #p freq mp2/aug-cc-pvtz density=current\\title\\0,1\H\O,1,r1\O,2,r2,1,
 a1\N,3,r3,2,a2,1,d1,0\O,4,r4,3,a3,2,d2,0\\r1=0.97008753\r2=1.42673666\
 r3=1.38110764\r4=1.19478846\a1=100.6355057\a2=113.13777052\a3=114.3339
 2022\d1=0.\d2=0.\\Version=ES64L-G16RevB.01\State=1-A'\HF=-279.5071535\
 MP2=-280.4550503\RMSD=4.208e-09\RMSF=4.819e-03\ZeroPoint=0.0229151\The
 rmal=0.0265202\Dipole=-0.1107737,0.,-0.4108445\DipoleDeriv=0.3110439,0
 .,0.0400208,0.,0.3004619,0.,-0.0168758,0.,0.1963626,-0.5269875,0.,0.28

 Normal termination of Gaussian 16 at Sun Mar  6 18:55:28 2022.
