 Gaussian 16, Revision B.01,
 Gaussian 16:  ES64L-G16RevB.01 20-Dec-2017

 ---------------------------------------
 #p freq mp2/aug-cc-pvtz density=current
 ---------------------------------------

 -----
 title
 -----
 Symbolic Z-matrix:
 Charge =  0 Multiplicity = 1

                         Standard orientation:
 ---------------------------------------------------------------------
 Center     Atomic      Atomic             Coordinates (Angstroms)
 Number     Number       Type             X           Y           Z
 ---------------------------------------------------------------------
      1          1           0       -0.540190   -1.138521    0.023306
      2          8           0       -1.276959   -0.484531    0.002424
      3          8           0       -0.542903    0.738832   -0.008596
      4          7           0        0.825210    0.551031    0.012753
      5          8           0        1.165327   -0.594138   -0.007900
 ---------------------------------------------------------------------

 SCF Done:  E(RHF) =  -279.506366253     A.U. after   14 cycles
 E2 =    -0.9487829247D+00 EUMP2 =    -0.28045514917750D+03
 E2 =    -0.9487829247D+00 EUMP2 =    -0.28045514917750D+03

 The electronic state is 1-A.
 Alpha  occ. eigenvalues --  -20.71975 -20.68726 -20.66831 -15.82600  -1.64427
 Alpha  occ. eigenvalues --   -1.50516  -1.29376  -0.96036  -0.83463  -0.75893
 Alpha  occ. eigenvalues --   -0.73994  -0.63743  -0.61903  -0.61811  -0.50476
 Alpha  occ. eigenvalues --   -0.49740
 Alpha virt. eigenvalues --    0.03506   0.06019   0.09512   0.10038   0.11940
 Alpha virt. eigenvalues --    0.12285   0.14939   0.15204   0.17744   0.18044
 Alpha virt. eigenvalues --    0.18971   0.21108   0.21675   0.24253   0.24634

 Mulliken charges:
               1
     1  H    0.278034
     2  O   -0.274140
     3  O    0.037698
     4  N    0.154202
     5  O   -0.195793
 Sum of Mulliken charges =  -0.00000

 Dipole moment (field-independent basis, Debye):
    X=              0.6061    Y=             -0.9128    Z=              0.0333  Tot=              1.0962
 Quadrupole moment (field-independent basis, Debye-Ang):
   XX=            -25.1097   YY=            -21.2120   ZZ=            -21.9322
   XY=              0.3826   XZ=             -0.0218   YZ=             -0.0860

  Exact polarizability:  34.498  -0.729  26.274   0.029  -0.006  17.622
 Approx polarizability:  26.141  -1.635  26.074   0.014   0.005  15.518

                      1                      2                      3
                      A                      A                      A
 Frequencies --    352.5448               396.4499               522.7032
 Red. masses --      1.5497                 7.1007                 2.9311
 Frc consts  --      0.1135                 0.6575                 0.4718
 IR Inten    --     63.1341                 7.7870                25.4188

                      4                      5                      6
                      A                      A                      A
 Frequencies --    711.4773               837.0369               970.9909
 Red. masses --     13.3216                12.3689                 9.7753
 Frc consts  --      3.9731                 5.1059                 5.4301
 IR Inten    --    217.2536                30.6899                12.7637

                      7                      8                      9
                      A                      A                      A
 Frequencies --   1434.2765              1570.2809              3487.7936
 Red. masses --      1.3056                 6.3950                 1.0638
 Frc consts  --      1.5825                 9.2906                 7.6242
 IR Inten    --     79.9094               150.1392                42.6158

 - Thermochemistry -
 -------------------
 Temperature   298.150 Kelvin.  Pressure   1.00000 Atm.
 Atom     1 has atomic number  1 and mass   1.00783

 Molecular mass:    62.99564 amu.
 Principal axes and moments of inertia in atomic units:
                           1         2         3
     Eigenvalues --    84.51153 222.68081 307.15622
           X            0.99987   0.01593  -0.00022
           Y           -0.01593   0.99987  -0.00114
           Z            0.00020   0.00114   1.00000
 This molecule is an asymmetric top.
 Rotational symmetry number  1.
 Rotational temperatures (Kelvin)      1.02488     0.38896     0.28199
 Rotational constants (GHZ):          21.35497     8.10461     5.87565
 Zero-point vibrational energy      61509.3 (Joules/Mol)
                                   14.70108 (Kcal/Mol)
 Warning -- explicit consideration of   3 degrees of freedom as
           vibrations may cause significant error
 Vibrational temperatures:    507.23   570.40   752.05  1023.66  1204.31
          (Kelvin)           1397.04  2063.60  2259.28  5018.16

 Zero-point correction=                           0.023428 (Hartree/Particle)
 Thermal correction to Energy=                    0.027367
 Thermal correction to Enthalpy=                  0.028311
 Thermal correction to Gibbs Free Energy=        -0.002548
 Sum of electronic and zero-point Energies=           -280.431722
 Sum of electronic and thermal Energies=              -280.427782
 Sum of electronic and thermal Enthalpies=            -280.426838
 Sum of electronic and thermal Free Energies=         -280.457697

                     E (Thermal)             CV                S
                      KCal/Mol        Cal/Mol-Kelvin    Cal/Mol-Kelvin
 Total                   17.173             12.171             64.950
 Electronic               0.000              0.000              0.000
 Translational            0.889              2.981             38.341
 Rotational               0.889              2.981             23.273
 Vibrational             15.396              6.209              3.336
 Vibration     1          0.729              1.570              1.155
 Vibration     2          0.763              1.478              0.976
 Vibration     3          0.878              1.200              0.604

                       ! Non-Optimized Parameters !

 1\1\GINC-N2228\Freq\RMP2-FC\Aug-CC-pVTZ\H1N1O3\CGAVINH\06-Mar-2022\1\\
 #p freq mp2/aug-cc-pvtz density=current\\title\\0,1\H\O,1,r1\O,2,r2,1,
 a1\N,3,r3,2,a2,1,d1,0\O,4,r4,3,a3,2,d2,0\\r1=0.98537664\r2=1.42673666\
 r3=1.38110764\r4=1.19478846\a1=100.6355057\a2=113.13777052\a3=114.3339
 2022\d1=0.\d2=2.34774839\\Version=ES64L-G16RevB.01\State=1-A\HF=-279.5
 063663\MP2=-280.4551492\RMSD=8.900e-09\RMSF=1.236e-03\ZeroPoint=0.0234
 277\Thermal=0.0273672\Dipole=-0.1102821,-0.0038515,-0.4169263\DipoleDe
 riv=0.3167398,0.001785,0.0380488,0.0022733,0.2981215,-0.0002319,-0.024

 Normal termination of Gaussian 16 at Sun Mar  6 20:00:47 2022.
