 Gaussian 16, Revision B.01,
 Gaussian 16:  ES64L-G16RevB.01 20-Dec-2017

 ---------------------------------------
 #p freq mp2/aug-cc-pvtz density=current
 ---------------------------------------

 -----
 title
 -----
 Symbolic Z-matrix:
 Charge =  0 Multiplicity = 1

                         Standard orientation:
 ---------------------------------------------------------------------
 Center     Atomic      Atomic             Coordinates (Angstroms)
 Number     Number       Type             X           Y           Z
 ---------------------------------------------------------------------
      1          1           0        1.116690   -0.588035    0.000000
      2          8           0        1.318548    0.376444    0.000000
      3          8           0        0.000000    0.921430    0.000000
      4          7           0       -0.996365   -0.054480    0.000000
      5          8           0       -0.586315   -1.176700    0.000000
 ---------------------------------------------------------------------

 SCF Done:  E(RHF) =  -279.505198948     A.U. after   14 cycles
 E2 =    -0.9499695349D+00 EUMP2 =    -0.28045516848253D+03
 E2 =    -0.9499695349D+00 EUMP2 =    -0.28045516848253D+03

 The electronic state is 1-A'.
 Alpha  occ. eigenvalues --  -20.71755 -20.69039 -20.66750 -15.82769  -1.64115
 Alpha  occ. eigenvalues --   -1.50501  -1.28893  -0.96113  -0.83321  -0.75734
 Alpha  occ. eigenvalues --   -0.73696  -0.63702  -0.61963  -0.61905  -0.50442
 Alpha  occ. eigenvalues --   -0.49617
 Alpha virt. eigenvalues --    0.03513   0.05827   0.09505   0.10034   0.11972
 Alpha virt. eigenvalues --    0.12230   0.14965   0.15238   0.17761   0.18011
 Alpha virt. eigenvalues --    0.18987   0.21088   0.21675   0.24217   0.24630

 Mulliken charges:
               1
     1  H    0.277738
     2  O   -0.272384
     3  O    0.027241
     4  N    0.158811
     5  O   -0.191406
 Sum of Mulliken charges =  -0.00000

 Dipole moment (field-independent basis, Debye):
    X=              0.0180    Y=             -1.1573    Z=              0.0000  Tot=              1.1574
 Quadrupole moment (field-independent basis, Debye-Ang):
   XX=            -23.3317   YY=            -22.9708   ZZ=            -21.9554
   XY=             -1.9455   XZ=              0.0000   YZ=              0.0000

  Exact polarizability:  30.990   4.238  30.054   0.000   0.000  17.665
 Approx polarizability:  24.675   0.585  27.874  -0.000  -0.000  15.537

                      1                      2                      3
                     A"                     A'                     A"
 Frequencies --    347.2958               386.0175               520.4161
 Red. masses --      1.5225                 7.1710                 3.0384
 Frc consts  --      0.1082                 0.6296                 0.4848
 IR Inten    --     63.7130                 8.7448                24.3710

                      4                      5                      6
                     A'                     A'                     A'
 Frequencies --    663.7907               835.5779               967.5922
 Red. masses --     13.2368                12.2002                 9.9719
 Frc consts  --      3.4363                 5.0187                 5.5006
 IR Inten    --    229.3195                28.9610                11.7288

                      7                      8                      9
                     A'                     A'                     A'
 Frequencies --   1434.7536              1563.4889              3489.0679
 Red. masses --      1.3147                 6.0876                 1.0639
 Frc consts  --      1.5946                 8.7677                 7.6310
 IR Inten    --     79.1387               150.0922                40.4097

 - Thermochemistry -
 -------------------
 Temperature   298.150 Kelvin.  Pressure   1.00000 Atm.
 Atom     1 has atomic number  1 and mass   1.00783

 Molecular mass:    62.99564 amu.
 Principal axes and moments of inertia in atomic units:
                           1         2         3
     Eigenvalues --    84.54914 225.50383 310.05297
           X            0.79216  -0.61031   0.00000
           Y            0.61031   0.79216   0.00000
           Z            0.00000   0.00000   1.00000
 This molecule is an asymmetric top.
 Rotational symmetry number  1.
 Rotational temperatures (Kelvin)      1.02442     0.38409     0.27935
 Rotational constants (GHZ):          21.34547     8.00315     5.82075
 Zero-point vibrational energy      61057.4 (Joules/Mol)
                                   14.59307 (Kcal/Mol)
 Warning -- explicit consideration of   3 degrees of freedom as
           vibrations may cause significant error
 Vibrational temperatures:    499.68   555.39   748.76   955.05  1202.21
          (Kelvin)           1392.15  2064.29  2249.51  5019.99

 Zero-point correction=                           0.023256 (Hartree/Particle)
 Thermal correction to Energy=                    0.027234
 Thermal correction to Enthalpy=                  0.028178
 Thermal correction to Gibbs Free Energy=        -0.002754
 Sum of electronic and zero-point Energies=           -280.431913
 Sum of electronic and thermal Energies=              -280.427935
 Sum of electronic and thermal Enthalpies=            -280.426990
 Sum of electronic and thermal Free Energies=         -280.457923

                     E (Thermal)             CV                S
                      KCal/Mol        Cal/Mol-Kelvin    Cal/Mol-Kelvin
 Total                   17.089             12.309             65.102
 Electronic               0.000              0.000              0.000
 Translational            0.889              2.981             38.341
 Rotational               0.889              2.981             23.296
 Vibrational             15.312              6.348              3.466
 Vibration     1          0.725              1.581              1.178
 Vibration     2          0.755              1.500              1.015
 Vibration     3          0.875              1.205              0.609

                       ! Non-Optimized Parameters !

 1\1\GINC-N2199\Freq\RMP2-FC\Aug-CC-pVTZ\H1N1O3\CGAVINH\06-Mar-2022\1\\
 #p freq mp2/aug-cc-pvtz density=current\\title\\0,1\H\O,1,r1\O,2,r2,1,
 a1\N,3,r3,2,a2,1,d1,0\O,4,r4,3,a3,2,d2,0\\r1=0.98537664\r2=1.42673666\
 r3=1.39468385\r4=1.19478846\a1=100.6355057\a2=113.13777052\a3=114.3339
 2022\d1=0.\d2=0.\\Version=ES64L-G16RevB.01\State=1-A'\HF=-279.5051989\
 MP2=-280.4551685\RMSD=4.741e-09\RMSF=1.744e-03\ZeroPoint=0.0232555\The
 rmal=0.0272338\Dipole=-0.1002022,0.,-0.4442057\DipoleDeriv=0.3136786,0
 .,0.0388668,0.,0.297885,0.,-0.0228048,0.,0.194294,-0.5243955,0.,0.2799

 Normal termination of Gaussian 16 at Sun Mar  6 19:07:58 2022.
