 Gaussian 16, Revision B.01,
 Gaussian 16:  ES64L-G16RevB.01 20-Dec-2017

 ---------------------------------------
 #p freq mp2/aug-cc-pvtz density=current
 ---------------------------------------

 -----
 title
 -----
 Symbolic Z-matrix:
 Charge =  0 Multiplicity = 1

                         Standard orientation:
 ---------------------------------------------------------------------
 Center     Atomic      Atomic             Coordinates (Angstroms)
 Number     Number       Type             X           Y           Z
 ---------------------------------------------------------------------
      1          1           0        0.546590   -1.135957    0.103192
      2          8           0        1.276692   -0.484264   -0.011765
      3          8           0        0.542542    0.739001    0.003195
      4          7           0       -0.825684    0.550808    0.004010
      5          8           0       -1.165084   -0.594699   -0.007839
 ---------------------------------------------------------------------

 SCF Done:  E(RHF) =  -279.506348055     A.U. after   16 cycles
 E2 =    -0.9487359692D+00 EUMP2 =    -0.28045508402466D+03
 E2 =    -0.9487359692D+00 EUMP2 =    -0.28045508402466D+03

 The electronic state is 1-A.
 Alpha  occ. eigenvalues --  -20.71968 -20.68689 -20.66853 -15.82570  -1.64395
 Alpha  occ. eigenvalues --   -1.50508  -1.29370  -0.96017  -0.83397  -0.75871
 Alpha  occ. eigenvalues --   -0.74011  -0.63834  -0.61926  -0.61649  -0.50447
 Alpha  occ. eigenvalues --   -0.49762
 Alpha virt. eigenvalues --    0.03496   0.06049   0.09512   0.10041   0.11904
 Alpha virt. eigenvalues --    0.12265   0.14991   0.15187   0.17670   0.18117
 Alpha virt. eigenvalues --    0.18910   0.21188   0.21691   0.24228   0.24623

 Mulliken charges:
               1
     1  H    0.278558
     2  O   -0.273576
     3  O    0.036901
     4  N    0.154624
     5  O   -0.196507
 Sum of Mulliken charges =  -0.00000

 Dipole moment (field-independent basis, Debye):
    X=             -0.5938    Y=             -0.9131    Z=              0.1642  Tot=              1.1015
 Quadrupole moment (field-independent basis, Debye-Ang):
   XX=            -25.1057   YY=            -21.2269   ZZ=            -21.9050
   XY=             -0.3989   XZ=              0.0775   YZ=             -0.2934

  Exact polarizability:  34.469   0.731  26.283   0.010  -0.063  17.639
 Approx polarizability:  26.109   1.631  26.083  -0.086  -0.056  15.542

                      1                      2                      3
                      A                      A                      A
 Frequencies --    331.2022               401.4288               517.3359
 Red. masses --      1.5009                 6.4450                 3.3344
 Frc consts  --      0.0970                 0.6119                 0.5258
 IR Inten    --     63.9796                 9.7581                21.2798

                      4                      5                      6
                      A                      A                      A
 Frequencies --    711.6475               837.1418               970.9749
 Red. masses --     12.5993                12.3777                 9.8275
 Frc consts  --      3.7595                 5.1108                 5.4590
 IR Inten    --    218.0474                31.8267                12.6755

                      7                      8                      9
                      A                      A                      A
 Frequencies --   1437.5546              1569.5258              3490.2472
 Red. masses --      1.3003                 6.4469                 1.0638
 Frc consts  --      1.5833                 9.3570                 7.6355
 IR Inten    --     79.2763               149.3113                41.1817

 - Thermochemistry -
 -------------------
 Temperature   298.150 Kelvin.  Pressure   1.00000 Atm.
 Atom     1 has atomic number  1 and mass   1.00783

 Molecular mass:    62.99564 amu.
 Principal axes and moments of inertia in atomic units:
                           1         2         3
     Eigenvalues --    84.54758 222.68197 307.13310
           X            0.99987  -0.01608   0.00096
           Y            0.01608   0.99986  -0.00502
           Z           -0.00088   0.00503   0.99999
 This molecule is an asymmetric top.
 Rotational symmetry number  1.
 Rotational temperatures (Kelvin)      1.02444     0.38896     0.28201
 Rotational constants (GHZ):          21.34587     8.10457     5.87609
 Zero-point vibrational energy      61410.6 (Joules/Mol)
                                   14.67750 (Kcal/Mol)
 Warning -- explicit consideration of   3 degrees of freedom as
           vibrations may cause significant error
 Vibrational temperatures:    476.53   577.57   744.33  1023.90  1204.46
          (Kelvin)           1397.02  2068.32  2258.20  5021.69

 Zero-point correction=                           0.023390 (Hartree/Particle)
 Thermal correction to Energy=                    0.027352
 Thermal correction to Enthalpy=                  0.028297
 Thermal correction to Gibbs Free Energy=        -0.002607
 Sum of electronic and zero-point Energies=           -280.431694
 Sum of electronic and thermal Energies=              -280.427732
 Sum of electronic and thermal Enthalpies=            -280.426787
 Sum of electronic and thermal Free Energies=         -280.457691

                     E (Thermal)             CV                S
                      KCal/Mol        Cal/Mol-Kelvin    Cal/Mol-Kelvin
 Total                   17.164             12.214             65.043
 Electronic               0.000              0.000              0.000
 Translational            0.889              2.981             38.341
 Rotational               0.889              2.981             23.274
 Vibrational             15.386              6.252              3.429
 Vibration     1          0.714              1.613              1.254
 Vibration     2          0.767              1.467              0.957
 Vibration     3          0.872              1.212              0.616

                       ! Non-Optimized Parameters !

 1\1\GINC-N2108\Freq\RMP2-FC\Aug-CC-pVTZ\H1N1O3\CGAVINH\06-Mar-2022\1\\
 #p freq mp2/aug-cc-pvtz density=current\\title\\0,1\H\O,1,r1\O,2,r2,1,
 a1\N,3,r3,2,a2,1,d1,0\O,4,r4,3,a3,2,d2,0\\r1=0.98537664\r2=1.42673666\
 r3=1.38110764\r4=1.19478846\a1=100.6355057\a2=113.13777052\a3=114.3339
 2022\d1=-7.15120453\d2=0.\\Version=ES64L-G16RevB.01\State=1-A\HF=-279.
 5063481\MP2=-280.455084\RMSD=6.862e-09\RMSF=7.923e-04\ZeroPoint=0.0233
 901\Thermal=0.0273524\Dipole=-0.111859,0.0195879,-0.4182134\DipoleDeri
 v=0.3140951,-0.0118192,0.0403457,-0.0164212,0.2996069,-0.0040649,-0.02

 Normal termination of Gaussian 16 at Sun Mar  6 19:58:09 2022.
