 Gaussian 16, Revision B.01,
 Gaussian 16:  ES64L-G16RevB.01 20-Dec-2017

 ---------------------------------------
 #p freq mp2/aug-cc-pvtz density=current
 ---------------------------------------

 -----
 title
 -----
 Symbolic Z-matrix:
 Charge =  0 Multiplicity = 1

                         Standard orientation:
 ---------------------------------------------------------------------
 Center     Atomic      Atomic             Coordinates (Angstroms)
 Number     Number       Type             X           Y           Z
 ---------------------------------------------------------------------
      1          1           0        1.117652   -0.608206    0.000000
      2          8           0        1.328964    0.354247    0.000000
      3          8           0        0.000000    0.918869    0.000000
      4          7           0       -0.996101   -0.037813    0.000000
      5          8           0       -0.597082   -1.164003    0.000000
 ---------------------------------------------------------------------

 SCF Done:  E(RHF) =  -279.505237110     A.U. after   14 cycles
 E2 =    -0.9498752648D+00 EUMP2 =    -0.28045511237493D+03
 E2 =    -0.9498752648D+00 EUMP2 =    -0.28045511237493D+03

 The electronic state is 1-A'.
 Alpha  occ. eigenvalues --  -20.71971 -20.68699 -20.66992 -15.82624  -1.64167
 Alpha  occ. eigenvalues --   -1.49938  -1.29596  -0.95945  -0.83161  -0.75773
 Alpha  occ. eigenvalues --   -0.73763  -0.63982  -0.61665  -0.61469  -0.50408
 Alpha  occ. eigenvalues --   -0.50036
 Alpha virt. eigenvalues --    0.03486   0.06034   0.09507   0.10015   0.11985
 Alpha virt. eigenvalues --    0.12220   0.14820   0.15089   0.17757   0.18059
 Alpha virt. eigenvalues --    0.18988   0.21091   0.21653   0.23456   0.24633

 Mulliken charges:
               1
     1  H    0.280696
     2  O   -0.276227
     3  O    0.033193
     4  N    0.157175
     5  O   -0.194837
 Sum of Mulliken charges =  -0.00000

 Dipole moment (field-independent basis, Debye):
    X=              0.0221    Y=             -1.1158    Z=              0.0000  Tot=              1.1160
 Quadrupole moment (field-independent basis, Debye-Ang):
   XX=            -23.3796   YY=            -22.9126   ZZ=            -21.9561
   XY=             -2.0121   XZ=              0.0000   YZ=              0.0000

  Exact polarizability:  31.223   4.051  29.853   0.000   0.000  17.668
 Approx polarizability:  24.926   0.389  27.730  -0.000  -0.000  15.540

                      1                      2                      3
                     A"                     A'                     A"
 Frequencies --    353.0841               394.2514               521.8861
 Red. masses --      1.5430                 7.0841                 2.9607
 Frc consts  --      0.1133                 0.6488                 0.4751
 IR Inten    --     63.5887                 7.5388                25.2232

                      4                      5                      6
                     A'                     A'                     A'
 Frequencies --    706.0504               804.5180               953.1583
 Red. masses --     13.2706                13.2595                 9.1564
 Frc consts  --      3.8977                 5.0565                 4.9012
 IR Inten    --    209.5913                34.0378                13.5620

                      7                      8                      9
                     A'                     A'                     A'
 Frequencies --   1417.7260              1566.6678              3494.6957
 Red. masses --      1.2698                 7.5055                 1.0640
 Frc consts  --      1.5037                10.8539                 7.6565
 IR Inten    --     80.8937               148.4837                41.7743

 - Thermochemistry -
 -------------------
 Temperature   298.150 Kelvin.  Pressure   1.00000 Atm.
 Atom     1 has atomic number  1 and mass   1.00783

 Molecular mass:    62.99564 amu.
 Principal axes and moments of inertia in atomic units:
                           1         2         3
     Eigenvalues --    85.53766 223.91506 309.45272
           X            0.80534  -0.59281   0.00000
           Y            0.59281   0.80534   0.00000
           Z            0.00000   0.00000   1.00000
 This molecule is an asymmetric top.
 Rotational symmetry number  1.
 Rotational temperatures (Kelvin)      1.01258     0.38682     0.27989
 Rotational constants (GHZ):          21.09879     8.05994     5.83204
 Zero-point vibrational energy      61081.6 (Joules/Mol)
                                   14.59884 (Kcal/Mol)
 Warning -- explicit consideration of   3 degrees of freedom as
           vibrations may cause significant error
 Vibrational temperatures:    508.01   567.24   750.88  1015.85  1157.52
          (Kelvin)           1371.38  2039.79  2254.09  5028.09

 Zero-point correction=                           0.023265 (Hartree/Particle)
 Thermal correction to Energy=                    0.027221
 Thermal correction to Enthalpy=                  0.028165
 Thermal correction to Gibbs Free Energy=        -0.002729
 Sum of electronic and zero-point Energies=           -280.431848
 Sum of electronic and thermal Energies=              -280.427892
 Sum of electronic and thermal Enthalpies=            -280.426948
 Sum of electronic and thermal Free Energies=         -280.457841

                     E (Thermal)             CV                S
                      KCal/Mol        Cal/Mol-Kelvin    Cal/Mol-Kelvin
 Total                   17.081             12.266             65.022
 Electronic               0.000              0.000              0.000
 Translational            0.889              2.981             38.341
 Rotational               0.889              2.981             23.298
 Vibrational             15.304              6.304              3.383
 Vibration     1          0.729              1.569              1.152
 Vibration     2          0.761              1.482              0.984
 Vibration     3          0.877              1.202              0.606

                       ! Non-Optimized Parameters !

 1\1\GINC-N2219\Freq\RMP2-FC\Aug-CC-pVTZ\H1N1O3\CGAVINH\06-Mar-2022\1\\
 #p freq mp2/aug-cc-pvtz density=current\\title\\0,1\H\O,1,r1\O,2,r2,1,
 a1\N,3,r3,2,a2,1,d1,0\O,4,r4,3,a3,2,d2,0\\r1=0.98537664\r2=1.44393364\
 r3=1.38110764\r4=1.19478846\a1=100.6355057\a2=113.13777052\a3=114.3339
 2022\d1=0.\d2=0.\\Version=ES64L-G16RevB.01\State=1-A'\HF=-279.5052371\
 MP2=-280.4551124\RMSD=4.750e-09\RMSF=2.562e-03\ZeroPoint=0.0232647\The
 rmal=0.0272207\Dipole=-0.1026171,0.,-0.4269151\DipoleDeriv=0.3167299,0
 .,0.0372427,0.,0.2988464,0.,-0.0189817,0.,0.1977326,-0.5315116,0.,0.26

 Normal termination of Gaussian 16 at Sun Mar  6 18:59:25 2022.
