 Gaussian 16, Revision B.01,
 Gaussian 16:  ES64L-G16RevB.01 20-Dec-2017

 ---------------------------------------
 #p freq mp2/aug-cc-pvtz density=current
 ---------------------------------------

 -----
 title
 -----
 Symbolic Z-matrix:
 Charge =  0 Multiplicity = 1

                         Standard orientation:
 ---------------------------------------------------------------------
 Center     Atomic      Atomic             Coordinates (Angstroms)
 Number     Number       Type             X           Y           Z
 ---------------------------------------------------------------------
      1          1           0        1.138988   -0.584762    0.000000
      2          8           0        1.326497    0.382609    0.000000
      3          8           0       -0.000000    0.907950    0.000000
      4          7           0       -0.996167   -0.048665    0.000000
      5          8           0       -0.597225   -1.174882    0.000000
 ---------------------------------------------------------------------

 SCF Done:  E(RHF) =  -279.506548166     A.U. after   14 cycles
 E2 =    -0.9485453120D+00 EUMP2 =    -0.28045509347842D+03
 E2 =    -0.9485453120D+00 EUMP2 =    -0.28045509347842D+03

 The electronic state is 1-A'.
 Alpha  occ. eigenvalues --  -20.71807 -20.68644 -20.67015 -15.82607  -1.64236
 Alpha  occ. eigenvalues --   -1.50532  -1.29385  -0.96012  -0.83203  -0.75820
 Alpha  occ. eigenvalues --   -0.73888  -0.63958  -0.61887  -0.61717  -0.50378
 Alpha  occ. eigenvalues --   -0.49706
 Alpha virt. eigenvalues --    0.03478   0.06086   0.09518   0.10089   0.11974
 Alpha virt. eigenvalues --    0.12244   0.14859   0.15133   0.17765   0.18070
 Alpha virt. eigenvalues --    0.18996   0.21105   0.21667   0.24063   0.24653

 Mulliken charges:
               1
     1  H    0.281412
     2  O   -0.272299
     3  O    0.038275
     4  N    0.151442
     5  O   -0.198829
 Sum of Mulliken charges =  -0.00000

 Dipole moment (field-independent basis, Debye):
    X=              0.0965    Y=             -1.1072    Z=              0.0000  Tot=              1.1114
 Quadrupole moment (field-independent basis, Debye-Ang):
   XX=            -23.2622   YY=            -23.0392   ZZ=            -21.9381
   XY=             -2.0055   XZ=              0.0000   YZ=              0.0000

  Exact polarizability:  31.197   4.282  29.956   0.000   0.000  17.646
 Approx polarizability:  24.733   0.646  27.646  -0.000  -0.000  15.530

                      1                      2                      3
                     A"                     A'                     A"
 Frequencies --    354.2872               367.8973               517.0920
 Red. masses --      1.5456                 6.9970                 2.9653
 Frc consts  --      0.1143                 0.5580                 0.4672
 IR Inten    --     63.7352                 7.7151                25.7874

                      4                      5                      6
                     A'                     A'                     A'
 Frequencies --    713.6638               834.9337               971.2520
 Red. masses --     13.2094                12.1880                 9.5385
 Frc consts  --      3.9639                 5.0059                 5.3015
 IR Inten    --    221.6212                28.0605                13.0464

                      7                      8                      9
                     A'                     A'                     A'
 Frequencies --   1430.3052              1565.3522              3497.1156
 Red. masses --      1.2838                 7.2869                 1.0640
 Frc consts  --      1.5473                10.5201                 7.6667
 IR Inten    --     77.6586               153.6107                38.3347

 - Thermochemistry -
 -------------------
 Temperature   298.150 Kelvin.  Pressure   1.00000 Atm.
 Atom     1 has atomic number  1 and mass   1.00783

 Molecular mass:    62.99564 amu.
 Principal axes and moments of inertia in atomic units:
                           1         2         3
     Eigenvalues --    83.46549 227.25534 310.72083
           X            0.79829  -0.60227   0.00000
           Y            0.60227   0.79829   0.00000
           Z            0.00000   0.00000   1.00000
 This molecule is an asymmetric top.
 Rotational symmetry number  1.
 Rotational temperatures (Kelvin)      1.03772     0.38113     0.27875
 Rotational constants (GHZ):          21.62260     7.94147     5.80824
 Zero-point vibrational energy      61320.0 (Joules/Mol)
                                   14.65583 (Kcal/Mol)
 Warning -- explicit consideration of   3 degrees of freedom as
           vibrations may cause significant error
 Vibrational temperatures:    509.74   529.32   743.98  1026.80  1201.28
          (Kelvin)           1397.42  2057.89  2252.19  5031.57

 Zero-point correction=                           0.023356 (Hartree/Particle)
 Thermal correction to Energy=                    0.027326
 Thermal correction to Enthalpy=                  0.028270
 Thermal correction to Gibbs Free Energy=        -0.002654
 Sum of electronic and zero-point Energies=           -280.431738
 Sum of electronic and thermal Energies=              -280.427767
 Sum of electronic and thermal Enthalpies=            -280.426823
 Sum of electronic and thermal Free Energies=         -280.457748

                     E (Thermal)             CV                S
                      KCal/Mol        Cal/Mol-Kelvin    Cal/Mol-Kelvin
 Total                   17.147             12.241             65.086
 Electronic               0.000              0.000              0.000
 Translational            0.889              2.981             38.341
 Rotational               0.889              2.981             23.293
 Vibrational             15.370              6.280              3.453
 Vibration     1          0.730              1.566              1.147
 Vibration     2          0.740              1.538              1.089
 Vibration     3          0.872              1.212              0.617

                       ! Non-Optimized Parameters !

 1\1\GINC-N2108\Freq\RMP2-FC\Aug-CC-pVTZ\H1N1O3\CGAVINH\06-Mar-2022\1\\
 #p freq mp2/aug-cc-pvtz density=current\\title\\0,1\H\O,1,r1\O,2,r2,1,
 a1\N,3,r3,2,a2,1,d1,0\O,4,r4,3,a3,2,d2,0\\r1=0.98537664\r2=1.42673666\
 r3=1.38110764\r4=1.19478846\a1=100.6355057\a2=114.55499466\a3=114.3339
 2022\d1=0.\d2=0.\\Version=ES64L-G16RevB.01\State=1-A'\HF=-279.5065482\
 MP2=-280.4550935\RMSD=4.010e-09\RMSF=2.264e-03\ZeroPoint=0.0233555\The
 rmal=0.027326\Dipole=-0.1201564,0.,-0.4204155\DipoleDeriv=0.313086,0.,
 0.043056,0.,0.3004144,0.,-0.0153513,0.,0.1896292,-0.5408203,0.,0.27844

 Normal termination of Gaussian 16 at Sun Mar  6 19:35:07 2022.
