 Gaussian 16, Revision B.01,
 Gaussian 16:  ES64L-G16RevB.01 20-Dec-2017

 ---------------------------------------
 #p freq mp2/aug-cc-pvtz density=current
 ---------------------------------------

 -----
 title
 -----
 Symbolic Z-matrix:
 Charge =  0 Multiplicity = 1

                         Standard orientation:
 ---------------------------------------------------------------------
 Center     Atomic      Atomic             Coordinates (Angstroms)
 Number     Number       Type             X           Y           Z
 ---------------------------------------------------------------------
      1          1           0        1.098180   -0.584923    0.000000
      2          8           0        1.298747    0.379825   -0.000000
      3          8           0       -0.000000    0.914593   -0.000000
      4          7           0       -0.985371   -0.053137    0.000000
      5          8           0       -0.573820   -1.174808    0.000000
 ---------------------------------------------------------------------

 SCF Done:  E(RHF) =  -279.507476055     A.U. after   14 cycles
 E2 =    -0.9475203712D+00 EUMP2 =    -0.28045499642600D+03
 E2 =    -0.9475203712D+00 EUMP2 =    -0.28045499642600D+03

 The electronic state is 1-A'.
 Alpha  occ. eigenvalues --  -20.71995 -20.68759 -20.66619 -15.82569  -1.64815
 Alpha  occ. eigenvalues --   -1.51279  -1.29091  -0.96163  -0.83878  -0.76056
 Alpha  occ. eigenvalues --   -0.74324  -0.63427  -0.62385  -0.62069  -0.50549
 Alpha  occ. eigenvalues --   -0.49365
 Alpha virt. eigenvalues --    0.03531   0.06015   0.09514   0.10058   0.11955
 Alpha virt. eigenvalues --    0.12304   0.14977   0.15418   0.17746   0.18002
 Alpha virt. eigenvalues --    0.18964   0.21112   0.21693   0.24638   0.25322

 Mulliken charges:
               1
     1  H    0.274101
     2  O   -0.271771
     3  O    0.044630
     4  N    0.149652
     5  O   -0.196612
 Sum of Mulliken charges =  -0.00000

 Dipole moment (field-independent basis, Debye):
    X=              0.0902    Y=             -1.0631    Z=              0.0000  Tot=              1.0669
 Quadrupole moment (field-independent basis, Debye-Ang):
   XX=            -23.3793   YY=            -22.9775   ZZ=            -21.9037
   XY=             -1.9234   XZ=              0.0000   YZ=              0.0000

  Exact polarizability:  30.555   4.269  29.873  -0.000  -0.000  17.558
 Approx polarizability:  24.123   0.682  27.581  -0.000  -0.000  15.482

                      1                      2                      3
                     A"                     A'                     A"
 Frequencies --    354.1636               400.2682               525.4747
 Red. masses --      1.5716                 7.0254                 2.8588
 Frc consts  --      0.1161                 0.6632                 0.4651
 IR Inten    --     61.8922                 8.0279                25.6864

                      4                      5                      6
                     A'                     A'                     A'
 Frequencies --    716.8809               872.0602              1003.7765
 Red. masses --     13.3926                11.1717                10.8966
 Frc consts  --      4.0552                 5.0057                 6.4687
 IR Inten    --    222.6583                30.9073                11.7098

                      7                      8                      9
                     A'                     A'                     A'
 Frequencies --   1453.6432              1576.4361              3477.7931
 Red. masses --      1.3802                 5.0266                 1.0633
 Frc consts  --      1.7183                 7.3600                 7.5775
 IR Inten    --     79.5943               152.3327                43.8376

 - Thermochemistry -
 -------------------
 Temperature   298.150 Kelvin.  Pressure   1.00000 Atm.
 Atom     1 has atomic number  1 and mass   1.00783

 Molecular mass:    62.99564 amu.
 Principal axes and moments of inertia in atomic units:
                           1         2         3
     Eigenvalues --    83.21107 220.97376 304.18483
           X            0.78442  -0.62023   0.00000
           Y            0.62023   0.78442   0.00000
           Z            0.00000  -0.00000   1.00000
 This molecule is an asymmetric top.
 Rotational symmetry number  1.
 Rotational temperatures (Kelvin)      1.04089     0.39196     0.28474
 Rotational constants (GHZ):          21.68872     8.16722     5.93304
 Zero-point vibrational energy      62089.2 (Joules/Mol)
                                   14.83966 (Kcal/Mol)
 Warning -- explicit consideration of   3 degrees of freedom as
           vibrations may cause significant error
 Vibrational temperatures:    509.56   575.90   756.04  1031.43  1254.70
          (Kelvin)           1444.21  2091.47  2268.14  5003.77

 Zero-point correction=                           0.023649 (Hartree/Particle)
 Thermal correction to Energy=                    0.027565
 Thermal correction to Enthalpy=                  0.028509
 Thermal correction to Gibbs Free Energy=        -0.002301
 Sum of electronic and zero-point Energies=           -280.431348
 Sum of electronic and thermal Energies=              -280.427432
 Sum of electronic and thermal Enthalpies=            -280.426488
 Sum of electronic and thermal Free Energies=         -280.457298

                     E (Thermal)             CV                S
                      KCal/Mol        Cal/Mol-Kelvin    Cal/Mol-Kelvin
 Total                   17.297             12.046             64.845
 Electronic               0.000              0.000              0.000
 Translational            0.889              2.981             38.341
 Rotational               0.889              2.981             23.241
 Vibrational             15.520              6.085              3.264
 Vibration     1          0.730              1.567              1.148
 Vibration     2          0.766              1.470              0.962
 Vibration     3          0.880              1.194              0.597

                       ! Non-Optimized Parameters !

 1\1\GINC-N2095\Freq\RMP2-FC\Aug-CC-pVTZ\H1N1O3\CGAVINH\06-Mar-2022\1\\
 #p freq mp2/aug-cc-pvtz density=current\\title\\0,1\H\O,1,r1\O,2,r2,1,
 a1\N,3,r3,2,a2,1,d1,0\O,4,r4,3,a3,2,d2,0\\r1=0.98537664\r2=1.40453546\
 r3=1.38110764\r4=1.19478846\a1=100.6355057\a2=113.13777052\a3=114.3339
 2022\d1=0.\d2=0.\\Version=ES64L-G16RevB.01\State=1-A'\HF=-279.5074761\
 MP2=-280.4549964\RMSD=4.045e-09\RMSF=3.879e-03\ZeroPoint=0.0236485\The
 rmal=0.0275647\Dipole=-0.1198945,0.,-0.4022818\DipoleDeriv=0.3171455,0
 .,0.0387596,0.,0.2969163,0.,-0.0316288,0.,0.2021681,-0.5283365,0.,0.30

 Normal termination of Gaussian 16 at Sun Mar  6 19:04:22 2022.
