 Gaussian 16, Revision B.01,
 Gaussian 16:  ES64L-G16RevB.01 20-Dec-2017

 ---------------------------------------
 #p freq mp2/aug-cc-pvtz density=current
 ---------------------------------------

 -----
 title
 -----
 Symbolic Z-matrix:
 Charge =  0 Multiplicity = 1

                         Standard orientation:
 ---------------------------------------------------------------------
 Center     Atomic      Atomic             Coordinates (Angstroms)
 Number     Number       Type             X           Y           Z
 ---------------------------------------------------------------------
      1          1           0        1.121384   -0.581728    0.000000
      2          8           0        1.320238    0.383376    0.000000
      3          8           0        0.000000    0.924253    0.000000
      4          7           0       -0.999442   -0.060787    0.000000
      5          8           0       -0.585900   -1.181725    0.000000
 ---------------------------------------------------------------------

 SCF Done:  E(RHF) =  -279.504348339     A.U. after   14 cycles
 E2 =    -0.9507111043D+00 EUMP2 =    -0.28045505944305D+03
 E2 =    -0.9507111043D+00 EUMP2 =    -0.28045505944305D+03

 The electronic state is 1-A'.
 Alpha  occ. eigenvalues --  -20.71614 -20.69235 -20.66698 -15.82873  -1.63933
 Alpha  occ. eigenvalues --   -1.50484  -1.28589  -0.96166  -0.83224  -0.75640
 Alpha  occ. eigenvalues --   -0.73512  -0.63687  -0.62040  -0.61918  -0.50415
 Alpha  occ. eigenvalues --   -0.49531
 Alpha virt. eigenvalues --    0.03517   0.05704   0.09500   0.10033   0.11972
 Alpha virt. eigenvalues --    0.12210   0.14982   0.15262   0.17766   0.17996
 Alpha virt. eigenvalues --    0.18992   0.21080   0.21678   0.24180   0.24627

 Mulliken charges:
               1
     1  H    0.277586
     2  O   -0.271295
     3  O    0.020512
     4  N    0.161858
     5  O   -0.188660
 Sum of Mulliken charges =  -0.00000

 Dipole moment (field-independent basis, Debye):
    X=             -0.0041    Y=             -1.1979    Z=              0.0000  Tot=              1.1980
 Quadrupole moment (field-independent basis, Debye-Ang):
   XX=            -23.3020   YY=            -22.9883   ZZ=            -21.9692
   XY=             -1.9272   XZ=              0.0000   YZ=              0.0000

  Exact polarizability:  31.032   4.296  30.179   0.000   0.000  17.694
 Approx polarizability:  24.750   0.630  28.013  -0.000  -0.000  15.552

                      1                      2                      3
                     A"                     A'                     A"
 Frequencies --    342.9405               378.6920               518.4249
 Red. masses --      1.5030                 7.2539                 3.1194
 Frc consts  --      0.1041                 0.6129                 0.4940
 IR Inten    --     64.2258                 9.8916                23.7187

                      4                      5                      6
                     A'                     A'                     A'
 Frequencies --    634.8151               834.6063               965.5609
 Red. masses --     13.1047                12.0998                10.1134
 Frc consts  --      3.1115                 4.9658                 5.5553
 IR Inten    --    235.5292                28.2812                11.2101

                      7                      8                      9
                     A'                     A'                     A'
 Frequencies --   1435.0886              1559.2357              3489.9824
 Red. masses --      1.3212                 5.8929                 1.0640
 Frc consts  --      1.6031                 8.4412                 7.6358
 IR Inten    --     78.7324               149.9721                38.9870

 - Thermochemistry -
 -------------------
 Temperature   298.150 Kelvin.  Pressure   1.00000 Atm.
 Atom     1 has atomic number  1 and mass   1.00783

 Molecular mass:    62.99564 amu.
 Principal axes and moments of inertia in atomic units:
                           1         2         3
     Eigenvalues --    84.56221 227.34761 311.90982
           X            0.78955  -0.61369   0.00000
           Y            0.61369   0.78955   0.00000
           Z            0.00000   0.00000   1.00000
 This molecule is an asymmetric top.
 Rotational symmetry number  1.
 Rotational temperatures (Kelvin)      1.02426     0.38098     0.27769
 Rotational constants (GHZ):          21.34217     7.93825     5.78610
 Zero-point vibrational energy      60766.4 (Joules/Mol)
                                   14.52351 (Kcal/Mol)
 Warning -- explicit consideration of   3 degrees of freedom as
           vibrations may cause significant error
 Vibrational temperatures:    493.41   544.85   745.90   913.36  1200.81
          (Kelvin)           1389.23  2064.77  2243.39  5021.31

 Zero-point correction=                           0.023145 (Hartree/Particle)
 Thermal correction to Energy=                    0.027151
 Thermal correction to Enthalpy=                  0.028095
 Thermal correction to Gibbs Free Energy=        -0.002890
 Sum of electronic and zero-point Energies=           -280.431915
 Sum of electronic and thermal Energies=              -280.427908
 Sum of electronic and thermal Enthalpies=            -280.426964
 Sum of electronic and thermal Free Energies=         -280.457949

                     E (Thermal)             CV                S
                      KCal/Mol        Cal/Mol-Kelvin    Cal/Mol-Kelvin
 Total                   17.038             12.401             65.213
 Electronic               0.000              0.000              0.000
 Translational            0.889              2.981             38.341
 Rotational               0.889              2.981             23.310
 Vibrational             15.260              6.440              3.563
 Vibration     1          0.722              1.590              1.198
 Vibration     2          0.749              1.516              1.044
 Vibration     3          0.873              1.209              0.614

                       ! Non-Optimized Parameters !

 1\1\GINC-N2109\Freq\RMP2-FC\Aug-CC-pVTZ\H1N1O3\CGAVINH\06-Mar-2022\1\\
 #p freq mp2/aug-cc-pvtz density=current\\title\\0,1\H\O,1,r1\O,2,r2,1,
 a1\N,3,r3,2,a2,1,d1,0\O,4,r4,3,a3,2,d2,0\\r1=0.98537664\r2=1.42673666\
 r3=1.4032775\r4=1.19478846\a1=100.6355057\a2=113.13777052\a3=114.33392
 022\d1=0.\d2=0.\\Version=ES64L-G16RevB.01\State=1-A'\HF=-279.5043483\M
 P2=-280.4550594\RMSD=4.935e-09\RMSF=2.779e-03\ZeroPoint=0.0231447\Ther
 mal=0.027151\Dipole=-0.0935301,0.,-0.4619365\DipoleDeriv=0.311686,0.,0
 .0394427,0.,0.2977644,0.,-0.0218221,0.,0.190801,-0.52233,0.,0.2789697,

 Normal termination of Gaussian 16 at Sun Mar  6 19:08:45 2022.
