 Gaussian 16, Revision B.01,
 Gaussian 16:  ES64L-G16RevB.01 20-Dec-2017

 ---------------------------------------
 #p freq mp2/aug-cc-pvtz density=current
 ---------------------------------------

 -----
 title
 -----
 Symbolic Z-matrix:
 Charge =  0 Multiplicity = 1

                         Standard orientation:
 ---------------------------------------------------------------------
 Center     Atomic      Atomic             Coordinates (Angstroms)
 Number     Number       Type             X           Y           Z
 ---------------------------------------------------------------------
      1          1           0        1.568121    1.664971    0.000000
      2          8           0        1.454749    0.702651   -0.000000
      3          8           0        0.000000    0.680411    0.000000
      4          7           0       -0.263165   -0.754439   -0.000000
      5          8           0       -1.420495   -0.931049    0.000000
 ---------------------------------------------------------------------

 SCF Done:  E(RHF) =  -279.501547665     A.U. after   14 cycles
 E2 =    -0.9451417687D+00 EUMP2 =    -0.28044668943320D+03
 E2 =    -0.9451417687D+00 EUMP2 =    -0.28044668943320D+03

 The electronic state is 1-A'.
 Alpha  occ. eigenvalues --  -20.69114 -20.68407 -20.65963 -15.81252  -1.62407
 Alpha  occ. eigenvalues --   -1.49604  -1.25391  -0.94828  -0.77360  -0.75875
 Alpha  occ. eigenvalues --   -0.71195  -0.67776  -0.62017  -0.59019  -0.48531
 Alpha  occ. eigenvalues --   -0.47271
 Alpha virt. eigenvalues --    0.02962   0.07180   0.08593   0.10144   0.13405
 Alpha virt. eigenvalues --    0.13407   0.14420   0.15486   0.17821   0.19405
 Alpha virt. eigenvalues --    0.19971   0.20641   0.22096   0.23551   0.23747

 Mulliken charges:
               1
     1  H    0.248780
     2  O   -0.199323
     3  O   -0.148782
     4  N    0.293495
     5  O   -0.194170
 Sum of Mulliken charges =  -0.00000

 Dipole moment (field-independent basis, Debye):
    X=              0.5338    Y=              1.3521    Z=              0.0000  Tot=              1.4537
 Quadrupole moment (field-independent basis, Debye-Ang):
   XX=            -22.3612   YY=            -18.7202   ZZ=            -22.0084
   XY=              3.2875   XZ=             -0.0000   YZ=              0.0000

  Exact polarizability:  34.007   9.334  30.058   0.000  -0.000  17.915
 Approx polarizability:  29.015   4.977  23.462  -0.000   0.000  15.517

 ******    1 imaginary frequencies (negative Signs) ******

                      1                      2                      3
                     A"                     A"                     A'
 Frequencies --   -262.0931               226.5256               343.5285
 Red. masses --      1.1379                10.4690                 8.5328
 Frc consts  --      0.0461                 0.3165                 0.5933
 IR Inten    --    124.8724                 0.7623                 9.5966

                      4                      5                      6
                     A'                     A'                     A'
 Frequencies --    460.4486               786.0631               966.8936
 Red. masses --     12.5635                13.0344                15.4737
 Frc consts  --      1.5694                 4.7452                 8.5232
 IR Inten    --    195.1081               169.5592                21.6053

                      7                      8                      9
                     A'                     A'                     A'
 Frequencies --   1370.9490              1677.8740              3778.6712
 Red. masses --      1.1319                13.1821                 1.0675
 Frc consts  --      1.2534                21.8652                 8.9804
 IR Inten    --    151.7347               140.8448                80.5701

 - Thermochemistry -
 -------------------
 Temperature   298.150 Kelvin.  Pressure   1.00000 Atm.
 Atom     1 has atomic number  1 and mass   1.00783

 Molecular mass:    62.99564 amu.
 Principal axes and moments of inertia in atomic units:
                           1         2         3
     Eigenvalues --    33.37677 357.37596 390.75274
           X            0.81448  -0.58019   0.00000
           Y            0.58019   0.81448   0.00000
           Z            0.00000  -0.00000   1.00000
 This molecule is an asymmetric top.
 Rotational symmetry number  1.
 Rotational temperatures (Kelvin)      2.59504     0.24236     0.22166
 Rotational constants (GHZ):          54.07177     5.04998     4.61863
    1 imaginary frequencies ignored.
 Zero-point vibrational energy      57486.3 (Joules/Mol)
                                   13.73955 (Kcal/Mol)
 Warning -- explicit consideration of   3 degrees of freedom as
           vibrations may cause significant error
 Vibrational temperatures:    325.92   494.26   662.48  1130.97  1391.14
          (Kelvin)           1972.49  2414.09  5436.67

 Zero-point correction=                           0.021895 (Hartree/Particle)
 Thermal correction to Energy=                    0.026007
 Thermal correction to Enthalpy=                  0.026951
 Thermal correction to Gibbs Free Energy=        -0.004226
 Sum of electronic and zero-point Energies=           -280.424794
 Sum of electronic and thermal Energies=              -280.420683
 Sum of electronic and thermal Enthalpies=            -280.419738
 Sum of electronic and thermal Free Energies=         -280.450916

                     E (Thermal)             CV                S
                      KCal/Mol        Cal/Mol-Kelvin    Cal/Mol-Kelvin
 Total                   16.320             11.934             65.618
 Electronic               0.000              0.000              0.000
 Translational            0.889              2.981             38.341
 Rotational               0.889              2.981             23.059
 Vibrational             14.542              5.972              4.218
 Vibration     1          0.650              1.801              1.906
 Vibration     2          0.722              1.588              1.196
 Vibration     3          0.818              1.338              0.765

                       ! Non-Optimized Parameters !

 1\1\GINC-N2228\Freq\RMP2-FC\Aug-CC-pVTZ\H1N1O3\CGAVINH\21-Feb-2022\1\\
 #p freq mp2/aug-cc-pvtz density=current\\title\\0,1\H\O,1,r1\O,2,r2,1,
 a1\N,3,r3,2,a2,1,d1,0\O,4,r4,3,a3,2,d2,0\\r1=0.96897556\r2=1.45491931\
 r3=1.45878406\r4=1.17072885\a1=97.59494903\a2=101.26889547\a3=109.0695
 5123\d1=180.\d2=180.\\Version=ES64L-G16RevB.01\State=1-A'\HF=-279.5015
 477\MP2=-280.4466894\RMSD=3.782e-09\RMSF=1.026e-03\ZeroPoint=0.0218954
 \Thermal=0.0260069\Dipole=-0.146329,0.,-0.5528741\DipoleDeriv=0.267629
 5,0.,0.0495623,0.,0.3554926,0.,0.0795667,0.,0.2730924,-0.3205,0.,-0.20

 Normal termination of Gaussian 16 at Mon Feb 21 20:47:04 2022.
