 Gaussian 16, Revision B.01,
 Gaussian 16:  ES64L-G16RevB.01 20-Dec-2017

 ---------------------------------------
 #p freq mp2/aug-cc-pvtz density=current
 ---------------------------------------

 -----
 title
 -----
 Symbolic Z-matrix:
 Charge =  0 Multiplicity = 1

                         Standard orientation:
 ---------------------------------------------------------------------
 Center     Atomic      Atomic             Coordinates (Angstroms)
 Number     Number       Type             X           Y           Z
 ---------------------------------------------------------------------
      1          1           0        1.102239   -0.589713    0.000000
      2          8           0        1.305042    0.374568    0.000000
      3          8           0       -0.000000    0.915469    0.000000
      4          7           0       -0.987612   -0.049974    0.000000
      5          8           0       -0.578661   -1.172596    0.000000
 ---------------------------------------------------------------------

 SCF Done:  E(RHF) =  -279.507159645     A.U. after   14 cycles
 E2 =    -0.9479833999D+00 EUMP2 =    -0.28045514304445D+03
 E2 =    -0.9479833999D+00 EUMP2 =    -0.28045514304445D+03

 The electronic state is 1-A'.
 Alpha  occ. eigenvalues --  -20.71989 -20.68747 -20.66696 -15.82582  -1.64666
 Alpha  occ. eigenvalues --   -1.50997  -1.29197  -0.96115  -0.83728  -0.75995
 Alpha  occ. eigenvalues --   -0.74201  -0.63539  -0.62201  -0.61984  -0.50520
 Alpha  occ. eigenvalues --   -0.49510
 Alpha virt. eigenvalues --    0.03523   0.06019   0.09514   0.10052   0.11961
 Alpha virt. eigenvalues --    0.12289   0.14966   0.15338   0.17749   0.18014
 Alpha virt. eigenvalues --    0.18969   0.21108   0.21685   0.24637   0.24927

 Mulliken charges:
               1
     1  H    0.275533
     2  O   -0.272638
     3  O    0.042069
     4  N    0.151322
     5  O   -0.196285
 Sum of Mulliken charges =  -0.00000

 Dipole moment (field-independent basis, Debye):
    X=              0.0761    Y=             -1.0748    Z=              0.0000  Tot=              1.0775
 Quadrupole moment (field-independent basis, Debye-Ang):
   XX=            -23.3788   YY=            -22.9648   ZZ=            -21.9146
   XY=             -1.9424   XZ=              0.0000   YZ=              0.0000

  Exact polarizability:  30.686   4.221  29.865   0.000   0.000  17.580
 Approx polarizability:  24.280   0.623  27.608  -0.000  -0.000  15.494

                      1                      2                      3
                     A"                     A'                     A"
 Frequencies --    354.0526               399.2421               524.7614
 Red. masses --      1.5664                 7.0392                 2.8766
 Frc consts  --      0.1157                 0.6611                 0.4667
 IR Inten    --     62.2238                 7.9389                25.6336

                      4                      5                      6
                     A'                     A'                     A'
 Frequencies --    715.0384               860.1974               990.2525
 Red. masses --     13.3748                11.5956                10.4432
 Frc consts  --      4.0290                 5.0552                 6.0336
 IR Inten    --    221.0211                30.5845                12.0015

                      7                      8                      9
                     A'                     A'                     A'
 Frequencies --   1446.5920              1574.0235              3481.4451
 Red. masses --      1.3481                 5.5185                 1.0635
 Frc consts  --      1.6622                 8.0555                 7.5946
 IR Inten    --     79.5745               151.6561                43.4560

 - Thermochemistry -
 -------------------
 Temperature   298.150 Kelvin.  Pressure   1.00000 Atm.
 Atom     1 has atomic number  1 and mass   1.00783

 Molecular mass:    62.99564 amu.
 Principal axes and moments of inertia in atomic units:
                           1         2         3
     Eigenvalues --    83.69676 221.56783 305.26458
           X            0.78882  -0.61462   0.00000
           Y            0.61462   0.78882   0.00000
           Z            0.00000   0.00000   1.00000
 This molecule is an asymmetric top.
 Rotational symmetry number  1.
 Rotational temperatures (Kelvin)      1.03485     0.39091     0.28373
 Rotational constants (GHZ):          21.56286     8.14532     5.91206
 Zero-point vibrational energy      61880.5 (Joules/Mol)
                                   14.78978 (Kcal/Mol)
 Warning -- explicit consideration of   3 degrees of freedom as
           vibrations may cause significant error
 Vibrational temperatures:    509.40   574.42   755.01  1028.78  1237.63
          (Kelvin)           1424.75  2081.32  2264.67  5009.02

 Zero-point correction=                           0.023569 (Hartree/Particle)
 Thermal correction to Energy=                    0.027492
 Thermal correction to Enthalpy=                  0.028437
 Thermal correction to Gibbs Free Energy=        -0.002389
 Sum of electronic and zero-point Energies=           -280.431574
 Sum of electronic and thermal Energies=              -280.427651
 Sum of electronic and thermal Enthalpies=            -280.426706
 Sum of electronic and thermal Free Energies=         -280.457532

                     E (Thermal)             CV                S
                      KCal/Mol        Cal/Mol-Kelvin    Cal/Mol-Kelvin
 Total                   17.252             12.089             64.879
 Electronic               0.000              0.000              0.000
 Translational            0.889              2.981             38.341
 Rotational               0.889              2.981             23.253
 Vibrational             15.474              6.127              3.285
 Vibration     1          0.730              1.567              1.148
 Vibration     2          0.765              1.472              0.965
 Vibration     3          0.880              1.195              0.599

                       ! Non-Optimized Parameters !

 1\1\GINC-N2228\Freq\RMP2-FC\Aug-CC-pVTZ\H1N1O3\CGAVINH\06-Mar-2022\1\\
 #p freq mp2/aug-cc-pvtz density=current\\title\\0,1\H\O,1,r1\O,2,r2,1,
 a1\N,3,r3,2,a2,1,d1,0\O,4,r4,3,a3,2,d2,0\\r1=0.98537664\r2=1.41269539\
 r3=1.38110764\r4=1.19478846\a1=100.6355057\a2=113.13777052\a3=114.3339
 2022\d1=0.\d2=0.\\Version=ES64L-G16RevB.01\State=1-A'\HF=-279.5071596\
 MP2=-280.455143\RMSD=4.181e-09\RMSF=2.418e-03\ZeroPoint=0.023569\Therm
 al=0.0274924\Dipole=-0.1163173,0.,-0.407664\DipoleDeriv=0.3170667,0.,0
 .0384246,0.,0.2973584,0.,-0.028989,0.,0.2014099,-0.5277269,0.,0.296366

 Normal termination of Gaussian 16 at Sun Mar  6 19:03:39 2022.
