 Gaussian 16, Revision B.01,
 Gaussian 16:  ES64L-G16RevB.01 20-Dec-2017

 ---------------------------------------
 #p freq mp2/aug-cc-pvtz density=current
 ---------------------------------------

 -----
 title
 -----
 Symbolic Z-matrix:
 Charge =  0 Multiplicity = 1

                         Standard orientation:
 ---------------------------------------------------------------------
 Center     Atomic      Atomic             Coordinates (Angstroms)
 Number     Number       Type             X           Y           Z
 ---------------------------------------------------------------------
      1          1           0        1.510308    1.692661    0.000000
      2          8           0        1.453975    0.725324    0.000000
      3          8           0       -0.000000    0.672918    0.000000
      4          7           0       -0.259163   -0.762660    0.000000
      5          8           0       -1.415996   -0.942497    0.000000
 ---------------------------------------------------------------------

 SCF Done:  E(RHF) =  -279.501207038     A.U. after   14 cycles
 E2 =    -0.9453713906D+00 EUMP2 =    -0.28044657842851D+03
 E2 =    -0.9453713906D+00 EUMP2 =    -0.28044657842851D+03

 The electronic state is 1-A'.
 Alpha  occ. eigenvalues --  -20.69065 -20.68427 -20.66081 -15.81279  -1.62414
 Alpha  occ. eigenvalues --   -1.49713  -1.25407  -0.94820  -0.77392  -0.75776
 Alpha  occ. eigenvalues --   -0.71205  -0.67873  -0.62085  -0.59145  -0.48550
 Alpha  occ. eigenvalues --   -0.47253
 Alpha virt. eigenvalues --    0.02988   0.07158   0.08592   0.10164   0.13384
 Alpha virt. eigenvalues --    0.13408   0.14413   0.15465   0.17819   0.19395
 Alpha virt. eigenvalues --    0.19961   0.20641   0.22069   0.23532   0.23735

 Mulliken charges:
               1
     1  H    0.253432
     2  O   -0.201904
     3  O   -0.148941
     4  N    0.290857
     5  O   -0.193444
 Sum of Mulliken charges =  -0.00000

 Dipole moment (field-independent basis, Debye):
    X=              0.4570    Y=              1.3561    Z=             -0.0000  Tot=              1.4310
 Quadrupole moment (field-independent basis, Debye-Ang):
   XX=            -22.6512   YY=            -18.5953   ZZ=            -22.0066
   XY=              3.1239   XZ=             -0.0000   YZ=              0.0000

  Exact polarizability:  33.880   9.401  30.250  -0.000  -0.000  17.908
 Approx polarizability:  28.994   5.049  23.543  -0.000  -0.000  15.511

 ******    1 imaginary frequencies (negative Signs) ******

                      1                      2                      3
                     A"                     A"                     A'
 Frequencies --   -254.8243               225.4799               337.5817
 Red. masses --      1.1143                13.4074                 8.7268
 Frc consts  --      0.0426                 0.4016                 0.5860
 IR Inten    --    123.4310                 0.0051                 5.5467

                      4                      5                      6
                     A'                     A'                     A'
 Frequencies --    453.1152               787.3137               970.1995
 Red. masses --     12.5230                12.9156                15.7982
 Frc consts  --      1.5149                 4.7170                 8.7615
 IR Inten    --    197.7499               169.2795                24.1877

                      7                      8                      9
                     A'                     A'                     A'
 Frequencies --   1384.6556              1677.8360              3777.9308
 Red. masses --      1.1293                12.9326                 1.0669
 Frc consts  --      1.2757                21.4503                 8.9722
 IR Inten    --    161.9457               137.0287                79.9549

 - Thermochemistry -
 -------------------
 Temperature   298.150 Kelvin.  Pressure   1.00000 Atm.
 Atom     1 has atomic number  1 and mass   1.00783

 Molecular mass:    62.99564 amu.
 Principal axes and moments of inertia in atomic units:
                           1         2         3
     Eigenvalues --    32.92317 359.68523 392.60839
           X            0.80888  -0.58798   0.00000
           Y            0.58798   0.80888   0.00000
           Z            0.00000   0.00000   1.00000
 This molecule is an asymmetric top.
 Rotational symmetry number  1.
 Rotational temperatures (Kelvin)      2.63079     0.24080     0.22061
 Rotational constants (GHZ):          54.81676     5.01756     4.59680
    1 imaginary frequencies ignored.
 Zero-point vibrational energy      57505.2 (Joules/Mol)
                                   13.74406 (Kcal/Mol)
 Warning -- explicit consideration of   3 degrees of freedom as
           vibrations may cause significant error
 Vibrational temperatures:    324.42   485.70   651.93  1132.77  1395.90
          (Kelvin)           1992.21  2414.03  5435.60

 Zero-point correction=                           0.021903 (Hartree/Particle)
 Thermal correction to Energy=                    0.026027
 Thermal correction to Enthalpy=                  0.026971
 Thermal correction to Gibbs Free Energy=        -0.004231
 Sum of electronic and zero-point Energies=           -280.424676
 Sum of electronic and thermal Energies=              -280.420551
 Sum of electronic and thermal Enthalpies=            -280.419607
 Sum of electronic and thermal Free Energies=         -280.450809

                     E (Thermal)             CV                S
                      KCal/Mol        Cal/Mol-Kelvin    Cal/Mol-Kelvin
 Total                   16.332             11.952             65.670
 Electronic               0.000              0.000              0.000
 Translational            0.889              2.981             38.341
 Rotational               0.889              2.981             23.057
 Vibrational             14.555              5.991              4.273
 Vibration     1          0.650              1.802              1.915
 Vibration     2          0.718              1.600              1.224
 Vibration     3          0.812              1.354              0.786

                       ! Non-Optimized Parameters !

 1\1\GINC-N2127\Freq\RMP2-FC\Aug-CC-pVTZ\H1N1O3\CGAVINH\21-Feb-2022\1\\
 #p freq mp2/aug-cc-pvtz density=current\\title\\0,1\H\O,1,r1\O,2,r2,1,
 a1\N,3,r3,2,a2,1,d1,0\O,4,r4,3,a3,2,d2,0\\r1=0.96897556\r2=1.45491931\
 r3=1.45878406\r4=1.17072885\a1=95.39710469\a2=102.29752444\a3=109.0695
 5123\d1=180.\d2=180.\\Version=ES64L-G16RevB.01\State=1-A'\HF=-279.5012
 07\MP2=-280.4465784\RMSD=3.769e-09\RMSF=1.896e-03\ZeroPoint=0.0219026\
 Thermal=0.0260271\Dipole=-0.1484917,0.,-0.5430666\DipoleDeriv=0.275120
 9,0.,0.0562441,0.,0.3529417,0.,0.0779667,0.,0.2717698,-0.3434782,0.,-0

 Normal termination of Gaussian 16 at Mon Feb 21 20:42:38 2022.
