 Gaussian 16, Revision B.01,
 Gaussian 16:  ES64L-G16RevB.01 20-Dec-2017

 ---------------------------------------
 #p freq mp2/aug-cc-pvtz density=current
 ---------------------------------------

 -----
 title
 -----
 Symbolic Z-matrix:
 Charge =  0 Multiplicity = 1

                         Standard orientation:
 ---------------------------------------------------------------------
 Center     Atomic      Atomic             Coordinates (Angstroms)
 Number     Number       Type             X           Y           Z
 ---------------------------------------------------------------------
      1          1           0        1.552399    1.670395   -0.000000
      2          8           0        1.454218    0.706406   -0.000000
      3          8           0        0.000000    0.661227   -0.000000
      4          7           0       -0.261629   -0.747918    0.000000
      5          8           0       -1.419342   -0.922004    0.000000
 ---------------------------------------------------------------------

 SCF Done:  E(RHF) =  -279.503973908     A.U. after   14 cycles
 E2 =    -0.9426189918D+00 EUMP2 =    -0.28044659290021D+03
 E2 =    -0.9426189918D+00 EUMP2 =    -0.28044659290021D+03

 The electronic state is 1-A'.
 Alpha  occ. eigenvalues --  -20.69521 -20.67819 -20.66310 -15.80875  -1.62586
 Alpha  occ. eigenvalues --   -1.49917  -1.26215  -0.94626  -0.77489  -0.76233
 Alpha  occ. eigenvalues --   -0.71644  -0.67805  -0.61910  -0.59073  -0.48777
 Alpha  occ. eigenvalues --   -0.47340
 Alpha virt. eigenvalues --    0.02892   0.07498   0.08639   0.10199   0.13373
 Alpha virt. eigenvalues --    0.13406   0.14356   0.15403   0.17770   0.19420
 Alpha virt. eigenvalues --    0.19994   0.20942   0.22002   0.23428   0.23770

 Mulliken charges:
               1
     1  H    0.250460
     2  O   -0.199846
     3  O   -0.130300
     4  N    0.284070
     5  O   -0.204384
 Sum of Mulliken charges =  -0.00000

 Dipole moment (field-independent basis, Debye):
    X=              0.6252    Y=              1.5063    Z=             -0.0000  Tot=              1.6309
 Quadrupole moment (field-independent basis, Debye-Ang):
   XX=            -22.5133   YY=            -18.7234   ZZ=            -21.9735
   XY=              3.2076   XZ=              0.0000   YZ=             -0.0000

  Exact polarizability:  34.025   9.327  29.729  -0.000  -0.000  17.843
 Approx polarizability:  28.893   4.941  22.967  -0.000  -0.000  15.482

 ******    1 imaginary frequencies (negative Signs) ******

                      1                      2                      3
                     A"                     A"                     A'
 Frequencies --   -262.3419               217.9492               349.6217
 Red. masses --      1.1454                10.1436                 8.6644
 Frc consts  --      0.0464                 0.2839                 0.6240
 IR Inten    --    124.0557                 0.9181                 2.4800

                      4                      5                      6
                     A'                     A'                     A'
 Frequencies --    503.5545               805.3991               971.1688
 Red. masses --     12.2839                12.5434                15.2408
 Frc consts  --      1.8352                 4.7939                 8.4693
 IR Inten    --    169.4942               193.8786                25.8374

                      7                      8                      9
                     A'                     A'                     A'
 Frequencies --   1376.2013              1689.5190              3779.2421
 Red. masses --      1.1376                13.1219                 1.0675
 Frc consts  --      1.2694                22.0686                 8.9834
 IR Inten    --    157.6444               128.7273                82.0515

 - Thermochemistry -
 -------------------
 Temperature   298.150 Kelvin.  Pressure   1.00000 Atm.
 Atom     1 has atomic number  1 and mass   1.00783

 Molecular mass:    62.99564 amu.
 Principal axes and moments of inertia in atomic units:
                           1         2         3
     Eigenvalues --    32.18639 355.52574 387.71213
           X            0.81664  -0.57715   0.00000
           Y            0.57715   0.81664   0.00000
           Z           -0.00000   0.00000   1.00000
 This molecule is an asymmetric top.
 Rotational symmetry number  1.
 Rotational temperatures (Kelvin)      2.69101     0.24362     0.22340
 Rotational constants (GHZ):          56.07157     5.07626     4.65485
    1 imaginary frequencies ignored.
 Zero-point vibrational energy      57975.0 (Joules/Mol)
                                   13.85635 (Kcal/Mol)
 Warning -- explicit consideration of   3 degrees of freedom as
           vibrations may cause significant error
 Vibrational temperatures:    313.58   503.03   724.50  1158.79  1397.30
          (Kelvin)           1980.05  2430.84  5437.49

 Zero-point correction=                           0.022081 (Hartree/Particle)
 Thermal correction to Energy=                    0.026159
 Thermal correction to Enthalpy=                  0.027103
 Thermal correction to Gibbs Free Energy=        -0.004007
 Sum of electronic and zero-point Energies=           -280.424511
 Sum of electronic and thermal Energies=              -280.420434
 Sum of electronic and thermal Enthalpies=            -280.419490
 Sum of electronic and thermal Free Energies=         -280.450600

                     E (Thermal)             CV                S
                      KCal/Mol        Cal/Mol-Kelvin    Cal/Mol-Kelvin
 Total                   16.415             11.798             65.477
 Electronic               0.000              0.000              0.000
 Translational            0.889              2.981             38.341
 Rotational               0.889              2.981             23.010
 Vibrational             14.637              5.836              4.126
 Vibration     1          0.646              1.814              1.976
 Vibration     2          0.727              1.576              1.168
 Vibration     3          0.859              1.242              0.649

                       ! Non-Optimized Parameters !

 1\1\GINC-N2125\Freq\RMP2-FC\Aug-CC-pVTZ\H1N1O3\CGAVINH\21-Feb-2022\1\\
 #p freq mp2/aug-cc-pvtz density=current\\title\\0,1\H\O,1,r1\O,2,r2,1,
 a1\N,3,r3,2,a2,1,d1,0\O,4,r4,3,a3,2,d2,0\\r1=0.96897556\r2=1.45491931\
 r3=1.4332274\r4=1.17072885\a1=97.59494903\a2=102.29752444\a3=109.06955
 123\d1=180.\d2=180.\\Version=ES64L-G16RevB.01\State=1-A'\HF=-279.50397
 39\MP2=-280.4465929\RMSD=3.469e-09\RMSF=3.035e-03\ZeroPoint=0.0220815\
 Thermal=0.0261588\Dipole=-0.1846752,0.,-0.6145139\DipoleDeriv=0.268542
 5,0.,0.0506706,0.,0.3562996,0.,0.0820571,0.,0.2752939,-0.3238134,0.,-0

 Normal termination of Gaussian 16 at Mon Feb 21 20:24:22 2022.
