 Gaussian 16, Revision B.01,
 Gaussian 16:  ES64L-G16RevB.01 20-Dec-2017

 ---------------------------------------
 #p freq mp2/aug-cc-pvtz density=current
 ---------------------------------------

 -----
 title
 -----
 Symbolic Z-matrix:
 Charge =  0 Multiplicity = 1

                         Standard orientation:
 ---------------------------------------------------------------------
 Center     Atomic      Atomic             Coordinates (Angstroms)
 Number     Number       Type             X           Y           Z
 ---------------------------------------------------------------------
      1          1           0        1.544672    1.694423    0.000000
      2          8           0        1.453832    0.729715   -0.000000
      3          8           0        0.000000    0.673467    0.000000
      4          7           0       -0.255368   -0.762791   -0.000000
      5          8           0       -1.423468   -0.947542   -0.000000
 ---------------------------------------------------------------------

 SCF Done:  E(RHF) =  -279.499448297     A.U. after   14 cycles
 E2 =    -0.9470963816D+00 EUMP2 =    -0.28044654467870D+03
 E2 =    -0.9470963816D+00 EUMP2 =    -0.28044654467870D+03

 The electronic state is 1-A'.
 Alpha  occ. eigenvalues --  -20.69363 -20.68381 -20.66148 -15.81456  -1.61469
 Alpha  occ. eigenvalues --   -1.49540  -1.25559  -0.94971  -0.77152  -0.75608
 Alpha  occ. eigenvalues --   -0.70960  -0.67786  -0.61793  -0.59016  -0.48617
 Alpha  occ. eigenvalues --   -0.47479
 Alpha virt. eigenvalues --    0.02931   0.06802   0.08613   0.10172   0.13379
 Alpha virt. eigenvalues --    0.13418   0.14383   0.15424   0.17806   0.19430
 Alpha virt. eigenvalues --    0.19938   0.20634   0.22041   0.23445   0.23730

 Mulliken charges:
               1
     1  H    0.250664
     2  O   -0.200643
     3  O   -0.144575
     4  N    0.290368
     5  O   -0.195814
 Sum of Mulliken charges =  -0.00000

 Dipole moment (field-independent basis, Debye):
    X=              0.5519    Y=              1.4127    Z=              0.0000  Tot=              1.5166
 Quadrupole moment (field-independent basis, Debye-Ang):
   XX=            -22.5297   YY=            -18.6157   ZZ=            -22.0301
   XY=              3.2168   XZ=              0.0000   YZ=             -0.0000

  Exact polarizability:  34.126   9.601  30.414   0.000   0.000  17.950
 Approx polarizability:  29.273   5.202  23.624  -0.000   0.000  15.574

 ******    1 imaginary frequencies (negative Signs) ******

                      1                      2                      3
                     A"                     A"                     A'
 Frequencies --   -271.2914               263.8545               349.4733
 Red. masses --      1.1299                11.3670                 8.4771
 Frc consts  --      0.0490                 0.4663                 0.6100
 IR Inten    --    125.2008                 0.3293                 8.5400

                      4                      5                      6
                     A'                     A'                     A'
 Frequencies --    445.6545               785.3757               965.8167
 Red. masses --     12.4917                13.1731                15.3962
 Frc consts  --      1.4617                 4.7873                 8.4616
 IR Inten    --    196.5308               170.7138                24.0378

                      7                      8                      9
                     A'                     A'                     A'
 Frequencies --   1369.6535              1603.2376              3778.8106
 Red. masses --      1.1437                11.8189                 1.0676
 Frc consts  --      1.2641                17.8988                 8.9815
 IR Inten    --    161.1583               109.4435                83.4402

 - Thermochemistry -
 -------------------
 Temperature   298.150 Kelvin.  Pressure   1.00000 Atm.
 Atom     1 has atomic number  1 and mass   1.00783

 Molecular mass:    62.99564 amu.
 Principal axes and moments of inertia in atomic units:
                           1         2         3
     Eigenvalues --    32.88864 362.16497 395.05361
           X            0.80860  -0.58836   0.00000
           Y            0.58836   0.80860   0.00000
           Z            0.00000  -0.00000   1.00000
 This molecule is an asymmetric top.
 Rotational symmetry number  1.
 Rotational temperatures (Kelvin)      2.63355     0.23916     0.21925
 Rotational constants (GHZ):          54.87430     4.98320     4.56835
    1 imaginary frequencies ignored.
 Zero-point vibrational energy      57192.7 (Joules/Mol)
                                   13.66939 (Kcal/Mol)
 Warning -- explicit consideration of   3 degrees of freedom as
           vibrations may cause significant error
 Vibrational temperatures:    379.63   502.81   641.20  1129.98  1389.59
          (Kelvin)           1970.63  2306.70  5436.87

 Zero-point correction=                           0.021784 (Hartree/Particle)
 Thermal correction to Energy=                    0.025849
 Thermal correction to Enthalpy=                  0.026793
 Thermal correction to Gibbs Free Energy=        -0.004270
 Sum of electronic and zero-point Energies=           -280.424761
 Sum of electronic and thermal Energies=              -280.420695
 Sum of electronic and thermal Enthalpies=            -280.419751
 Sum of electronic and thermal Free Energies=         -280.450814

                     E (Thermal)             CV                S
                      KCal/Mol        Cal/Mol-Kelvin    Cal/Mol-Kelvin
 Total                   16.221             11.908             65.378
 Electronic               0.000              0.000              0.000
 Translational            0.889              2.981             38.341
 Rotational               0.889              2.981             23.069
 Vibrational             14.443              5.947              3.969
 Vibration     1          0.670              1.739              1.636
 Vibration     2          0.727              1.576              1.169
 Vibration     3          0.805              1.370              0.809

                       ! Non-Optimized Parameters !

 1\1\GINC-N2128\Freq\RMP2-FC\Aug-CC-pVTZ\H1N1O3\CGAVINH\21-Feb-2022\1\\
 #p freq mp2/aug-cc-pvtz density=current\\title\\0,1\H\O,1,r1\O,2,r2,1,
 a1\N,3,r3,2,a2,1,d1,0\O,4,r4,3,a3,2,d2,0\\r1=0.96897556\r2=1.45491931\
 r3=1.45878406\r4=1.1826202\a1=97.59494903\a2=102.29752444\a3=109.06955
 123\d1=180.\d2=180.\\Version=ES64L-G16RevB.01\State=1-A'\HF=-279.49944
 83\MP2=-280.4465447\RMSD=4.118e-09\RMSF=5.951e-03\ZeroPoint=0.0217836\
 Thermal=0.0258492\Dipole=-0.1640753,0.,-0.5736892\DipoleDeriv=0.266406
 ,0.,0.048481,0.,0.3559416,0.,0.0829162,0.,0.2769658,-0.330353,0.,-0.20

 Normal termination of Gaussian 16 at Mon Feb 21 20:29:43 2022.
