 Gaussian 16, Revision B.01,
 Gaussian 16:  ES64L-G16RevB.01 20-Dec-2017

 ---------------------------------------
 #p freq mp2/aug-cc-pvtz density=current
 ---------------------------------------

 -----
 title
 -----
 Symbolic Z-matrix:
 Charge =  0 Multiplicity = 1

                         Standard orientation:
 ---------------------------------------------------------------------
 Center     Atomic      Atomic             Coordinates (Angstroms)
 Number     Number       Type             X           Y           Z
 ---------------------------------------------------------------------
      1          1           0        1.547413    1.681841   -0.000000
      2          8           0        1.453978    0.717381   -0.000000
      3          8           0        0.000000    0.665044    0.000000
      4          7           0       -0.259231   -0.770522    0.000000
      5          8           0       -1.420577   -0.918449    0.000000
 ---------------------------------------------------------------------

 SCF Done:  E(RHF) =  -279.501590417     A.U. after   14 cycles
 E2 =    -0.9449606718D+00 EUMP2 =    -0.28044655108838D+03
 E2 =    -0.9449606718D+00 EUMP2 =    -0.28044655108838D+03

 The electronic state is 1-A'.
 Alpha  occ. eigenvalues --  -20.69022 -20.68374 -20.65895 -15.81337  -1.62537
 Alpha  occ. eigenvalues --   -1.49456  -1.25311  -0.94849  -0.77190  -0.75973
 Alpha  occ. eigenvalues --   -0.71211  -0.67895  -0.61982  -0.58802  -0.48447
 Alpha  occ. eigenvalues --   -0.47435
 Alpha virt. eigenvalues --    0.02975   0.07100   0.08625   0.10168   0.13386
 Alpha virt. eigenvalues --    0.13386   0.14416   0.15442   0.17843   0.19410
 Alpha virt. eigenvalues --    0.19987   0.20664   0.22078   0.23699   0.23760

 Mulliken charges:
               1
     1  H    0.250156
     2  O   -0.205042
     3  O   -0.144859
     4  N    0.293571
     5  O   -0.193825
 Sum of Mulliken charges =  -0.00000

 Dipole moment (field-independent basis, Debye):
    X=              0.5119    Y=              1.3394    Z=             -0.0000  Tot=              1.4339
 Quadrupole moment (field-independent basis, Debye-Ang):
   XX=            -22.5194   YY=            -18.6059   ZZ=            -22.0025
   XY=              3.2171   XZ=              0.0000   YZ=              0.0000

  Exact polarizability:  33.962   9.324  30.015  -0.000  -0.000  17.899
 Approx polarizability:  29.050   4.899  23.364  -0.000  -0.000  15.508

 ******    1 imaginary frequencies (negative Signs) ******

                      1                      2                      3
                     A"                     A"                     A'
 Frequencies --   -264.2917               229.5298               341.6343
 Red. masses --      1.1335                11.1368                 8.6627
 Frc consts  --      0.0466                 0.3457                 0.5957
 IR Inten    --    125.0667                 0.4370                 3.0471

                      4                      5                      6
                     A'                     A'                     A'
 Frequencies --    464.4838               783.1717               968.7378
 Red. masses --     12.1176                12.9545                15.4981
 Frc consts  --      1.5403                 4.6815                 8.5692
 IR Inten    --    200.2886               163.2366                20.1567

                      7                      8                      9
                     A'                     A'                     A'
 Frequencies --   1371.4451              1677.7167              3778.4203
 Red. masses --      1.1331                13.2776                 1.0675
 Frc consts  --      1.2557                22.0196                 8.9795
 IR Inten    --    150.0266               135.9216                81.2702

 - Thermochemistry -
 -------------------
 Temperature   298.150 Kelvin.  Pressure   1.00000 Atm.
 Atom     1 has atomic number  1 and mass   1.00783

 Molecular mass:    62.99564 amu.
 Principal axes and moments of inertia in atomic units:
                           1         2         3
     Eigenvalues --    33.10514 357.31037 390.41551
           X            0.81389  -0.58102   0.00000
           Y            0.58102   0.81389   0.00000
           Z           -0.00000   0.00000   1.00000
 This molecule is an asymmetric top.
 Rotational symmetry number  1.
 Rotational temperatures (Kelvin)      2.61633     0.24241     0.22185
 Rotational constants (GHZ):          54.51544     5.05091     4.62262
    1 imaginary frequencies ignored.
 Zero-point vibrational energy      57511.3 (Joules/Mol)
                                   13.74553 (Kcal/Mol)
 Warning -- explicit consideration of   3 degrees of freedom as
           vibrations may cause significant error
 Vibrational temperatures:    330.24   491.54   668.29  1126.81  1393.80
          (Kelvin)           1973.20  2413.86  5436.30

 Zero-point correction=                           0.021905 (Hartree/Particle)
 Thermal correction to Energy=                    0.026011
 Thermal correction to Enthalpy=                  0.026956
 Thermal correction to Gibbs Free Energy=        -0.004206
 Sum of electronic and zero-point Energies=           -280.424646
 Sum of electronic and thermal Energies=              -280.420540
 Sum of electronic and thermal Enthalpies=            -280.419596
 Sum of electronic and thermal Free Energies=         -280.450757

                     E (Thermal)             CV                S
                      KCal/Mol        Cal/Mol-Kelvin    Cal/Mol-Kelvin
 Total                   16.322             11.927             65.584
 Electronic               0.000              0.000              0.000
 Translational            0.889              2.981             38.341
 Rotational               0.889              2.981             23.050
 Vibrational             14.545              5.965              4.194
 Vibration     1          0.652              1.796              1.883
 Vibration     2          0.721              1.592              1.205
 Vibration     3          0.822              1.329              0.753

                       ! Non-Optimized Parameters !

 1\1\GINC-N2126\Freq\RMP2-FC\Aug-CC-pVTZ\H1N1O3\CGAVINH\21-Feb-2022\1\\
 #p freq mp2/aug-cc-pvtz density=current\\title\\0,1\H\O,1,r1\O,2,r2,1,
 a1\N,3,r3,2,a2,1,d1,0\O,4,r4,3,a3,2,d2,0\\r1=0.96897556\r2=1.45491931\
 r3=1.45878406\r4=1.17072885\a1=97.59494903\a2=102.29752444\a3=107.4950
 3494\d1=180.\d2=180.\\Version=ES64L-G16RevB.01\State=1-A'\HF=-279.5015
 904\MP2=-280.4465511\RMSD=3.726e-09\RMSF=2.978e-03\ZeroPoint=0.0219049
 \Thermal=0.0260114\Dipole=-0.1496579,0.,-0.5439291\DipoleDeriv=0.26542
 92,0.,0.0478245,0.,0.3552388,0.,0.0807903,0.,0.2731289,-0.3319406,0.,-

 Normal termination of Gaussian 16 at Mon Feb 21 21:00:07 2022.
