 Gaussian 16, Revision B.01,
 Gaussian 16:  ES64L-G16RevB.01 20-Dec-2017

 ---------------------------------------
 #p freq mp2/aug-cc-pvtz density=current
 ---------------------------------------

 -----
 title
 -----
 Symbolic Z-matrix:
 Charge =  0 Multiplicity = 1

                         Standard orientation:
 ---------------------------------------------------------------------
 Center     Atomic      Atomic             Coordinates (Angstroms)
 Number     Number       Type             X           Y           Z
 ---------------------------------------------------------------------
      1          1           0        1.115321   -0.589863    0.000000
      2          8           0        1.318053    0.374433    0.000000
      3          8           0        0.000000    0.920613    0.000000
      4          7           0       -0.995467   -0.052652    0.000000
      5          8           0       -0.586435   -1.175243    0.000000
 ---------------------------------------------------------------------

 SCF Done:  E(RHF) =  -279.505435407     A.U. after   14 cycles
 E2 =    -0.9497557668D+00 EUMP2 =    -0.28045519117370D+03
 E2 =    -0.9497557668D+00 EUMP2 =    -0.28045519117370D+03

 The electronic state is 1-A'.
 Alpha  occ. eigenvalues --  -20.71797 -20.68982 -20.66764 -15.82738  -1.64170
 Alpha  occ. eigenvalues --   -1.50505  -1.28981  -0.96098  -0.83349  -0.75762
 Alpha  occ. eigenvalues --   -0.73750  -0.63707  -0.61940  -0.61901  -0.50448
 Alpha  occ. eigenvalues --   -0.49642
 Alpha virt. eigenvalues --    0.03512   0.05863   0.09507   0.10035   0.11972
 Alpha virt. eigenvalues --    0.12236   0.14959   0.15231   0.17760   0.18016
 Alpha virt. eigenvalues --    0.18985   0.21091   0.21675   0.24226   0.24631

 Mulliken charges:
               1
     1  H    0.277777
     2  O   -0.272708
     3  O    0.029194
     4  N    0.157932
     5  O   -0.192195
 Sum of Mulliken charges =  -0.00000

 Dipole moment (field-independent basis, Debye):
    X=              0.0243    Y=             -1.1456    Z=              0.0000  Tot=              1.1458
 Quadrupole moment (field-independent basis, Debye-Ang):
   XX=            -23.3403   YY=            -22.9656   ZZ=            -21.9514
   XY=             -1.9508   XZ=              0.0000   YZ=              0.0000

  Exact polarizability:  30.978   4.221  30.018   0.000   0.000  17.656
 Approx polarizability:  24.654   0.573  27.834  -0.000  -0.000  15.533

                      1                      2                      3
                     A"                     A'                     A"
 Frequencies --    348.5164               388.1003               520.9873
 Red. masses --      1.5285                 7.1491                 3.0149
 Frc consts  --      0.1094                 0.6344                 0.4822
 IR Inten    --     63.5569                 8.5010                24.5679

                      4                      5                      6
                     A'                     A'                     A'
 Frequencies --    672.3676               835.8379               968.1973
 Red. masses --     13.2654                12.2308                 9.9321
 Frc consts  --      3.5333                 5.0344                 5.4855
 IR Inten    --    227.3132                29.2098                11.8950

                      7                      8                      9
                     A'                     A'                     A'
 Frequencies --   1434.6296              1564.7393              3488.7954
 Red. masses --      1.3130                 6.1449                 1.0639
 Frc consts  --      1.5921                 8.8644                 7.6296
 IR Inten    --     79.2727               150.1264                40.8296

 - Thermochemistry -
 -------------------
 Temperature   298.150 Kelvin.  Pressure   1.00000 Atm.
 Atom     1 has atomic number  1 and mass   1.00783

 Molecular mass:    62.99564 amu.
 Principal axes and moments of inertia in atomic units:
                           1         2         3
     Eigenvalues --    84.54530 224.97092 309.51622
           X            0.79292  -0.60932   0.00000
           Y            0.60932   0.79292   0.00000
           Z            0.00000   0.00000   1.00000
 This molecule is an asymmetric top.
 Rotational symmetry number  1.
 Rotational temperatures (Kelvin)      1.02447     0.38500     0.27984
 Rotational constants (GHZ):          21.34644     8.02211     5.83085
 Zero-point vibrational energy      61142.2 (Joules/Mol)
                                   14.61333 (Kcal/Mol)
 Warning -- explicit consideration of   3 degrees of freedom as
           vibrations may cause significant error
 Vibrational temperatures:    501.44   558.39   749.58   967.39  1202.58
          (Kelvin)           1393.02  2064.11  2251.31  5019.60

 Zero-point correction=                           0.023288 (Hartree/Particle)
 Thermal correction to Energy=                    0.027258
 Thermal correction to Enthalpy=                  0.028202
 Thermal correction to Gibbs Free Energy=        -0.002715
 Sum of electronic and zero-point Energies=           -280.431903
 Sum of electronic and thermal Energies=              -280.427933
 Sum of electronic and thermal Enthalpies=            -280.426989
 Sum of electronic and thermal Free Energies=         -280.457906

                     E (Thermal)             CV                S
                      KCal/Mol        Cal/Mol-Kelvin    Cal/Mol-Kelvin
 Total                   17.105             12.283             65.071
 Electronic               0.000              0.000              0.000
 Translational            0.889              2.981             38.341
 Rotational               0.889              2.981             23.291
 Vibrational             15.327              6.321              3.439
 Vibration     1          0.726              1.578              1.173
 Vibration     2          0.756              1.496              1.007
 Vibration     3          0.876              1.204              0.608

                       ! Non-Optimized Parameters !

 1\1\GINC-N2174\Freq\RMP2-FC\Aug-CC-pVTZ\H1N1O3\CGAVINH\06-Mar-2022\1\\
 #p freq mp2/aug-cc-pvtz density=current\\title\\0,1\H\O,1,r1\O,2,r2,1,
 a1\N,3,r3,2,a2,1,d1,0\O,4,r4,3,a3,2,d2,0\\r1=0.98537664\r2=1.42673666\
 r3=1.39219257\r4=1.19478846\a1=100.6355057\a2=113.13777052\a3=114.3339
 2022\d1=0.\d2=0.\\Version=ES64L-G16RevB.01\State=1-A'\HF=-279.5054354\
 MP2=-280.4551912\RMSD=4.684e-09\RMSF=1.436e-03\ZeroPoint=0.0232878\The
 rmal=0.0272582\Dipole=-0.1020855,0.,-0.4390994\DipoleDeriv=0.3142642,0
 .,0.0386925,0.,0.2979192,0.,-0.0230985,0.,0.1953146,-0.5250481,0.,0.28

 Normal termination of Gaussian 16 at Sun Mar  6 19:07:50 2022.
