 Gaussian 16, Revision B.01,
 Gaussian 16:  ES64L-G16RevB.01 20-Dec-2017

 ---------------------------------------
 #p freq mp2/aug-cc-pvtz density=current
 ---------------------------------------

 -----
 title
 -----
 Symbolic Z-matrix:
 Charge =  0 Multiplicity = 1

                         Standard orientation:
 ---------------------------------------------------------------------
 Center     Atomic      Atomic             Coordinates (Angstroms)
 Number     Number       Type             X           Y           Z
 ---------------------------------------------------------------------
      1          1           0        1.120065   -0.587657   -0.000000
      2          8           0        1.319764    0.377272    0.000000
      3          8           0        0.000000    0.919305    0.000000
      4          7           0       -0.984500   -0.049311   -0.000000
      5          8           0       -0.598334   -1.179972   -0.000000
 ---------------------------------------------------------------------

 SCF Done:  E(RHF) =  -279.506286812     A.U. after   14 cycles
 E2 =    -0.9487719392D+00 EUMP2 =    -0.28045505875124D+03
 E2 =    -0.9487719392D+00 EUMP2 =    -0.28045505875124D+03

 The electronic state is 1-A'.
 Alpha  occ. eigenvalues --  -20.72117 -20.68790 -20.66913 -15.82516  -1.64264
 Alpha  occ. eigenvalues --   -1.50699  -1.29436  -0.96078  -0.83299  -0.75865
 Alpha  occ. eigenvalues --   -0.73976  -0.63923  -0.61997  -0.61925  -0.50231
 Alpha  occ. eigenvalues --   -0.49825
 Alpha virt. eigenvalues --    0.03495   0.06101   0.09510   0.10058   0.11975
 Alpha virt. eigenvalues --    0.12269   0.14887   0.15182   0.17773   0.18037
 Alpha virt. eigenvalues --    0.18952   0.21112   0.21674   0.24261   0.24636

 Mulliken charges:
               1
     1  H    0.278470
     2  O   -0.274152
     3  O    0.037660
     4  N    0.154548
     5  O   -0.196527
 Sum of Mulliken charges =  -0.00000

 Dipole moment (field-independent basis, Debye):
    X=              0.0837    Y=             -1.0961    Z=             -0.0000  Tot=              1.0992
 Quadrupole moment (field-independent basis, Debye-Ang):
   XX=            -23.4072   YY=            -22.9524   ZZ=            -21.9385
   XY=             -1.9626   XZ=             -0.0000   YZ=             -0.0000

  Exact polarizability:  30.969   4.249  30.029   0.000   0.000  17.647
 Approx polarizability:  24.499   0.662  27.833   0.000   0.000  15.528

                      1                      2                      3
                     A"                     A'                     A"
 Frequencies --    350.8359               378.3230               515.1934
 Red. masses --      1.5694                 7.1403                 2.8726
 Frc consts  --      0.1138                 0.6021                 0.4492
 IR Inten    --     62.7289                 7.5905                25.8135

                      4                      5                      6
                     A'                     A'                     A'
 Frequencies --    701.4148               839.6141               967.3227
 Red. masses --     13.1493                12.4033                10.0045
 Frc consts  --      3.8116                 5.1517                 5.5156
 IR Inten    --    215.2493                35.1833                13.7567

                      7                      8                      9
                     A'                     A'                     A'
 Frequencies --   1440.8580              1568.7436              3490.3583
 Red. masses --      1.3026                 6.3343                 1.0641
 Frc consts  --      1.5933                 9.1844                 7.6380
 IR Inten    --     78.7406               153.0873                40.5300

 - Thermochemistry -
 -------------------
 Temperature   298.150 Kelvin.  Pressure   1.00000 Atm.
 Atom     1 has atomic number  1 and mass   1.00783

 Molecular mass:    62.99564 amu.
 Principal axes and moments of inertia in atomic units:
                           1         2         3
     Eigenvalues --    83.94016 226.18521 310.12537
           X            0.79060  -0.61234   0.00000
           Y            0.61234   0.79060   0.00000
           Z            0.00000  -0.00000   1.00000
 This molecule is an asymmetric top.
 Rotational symmetry number  1.
 Rotational temperatures (Kelvin)      1.03185     0.38293     0.27929
 Rotational constants (GHZ):          21.50033     7.97904     5.81939
 Zero-point vibrational energy      61324.5 (Joules/Mol)
                                   14.65692 (Kcal/Mol)
 Warning -- explicit consideration of   3 degrees of freedom as
           vibrations may cause significant error
 Vibrational temperatures:    504.77   544.32   741.25  1009.18  1208.02
          (Kelvin)           1391.76  2073.07  2257.07  5021.85

 Zero-point correction=                           0.023357 (Hartree/Particle)
 Thermal correction to Energy=                    0.027326
 Thermal correction to Enthalpy=                  0.028270
 Thermal correction to Gibbs Free Energy=        -0.002649
 Sum of electronic and zero-point Energies=           -280.431701
 Sum of electronic and thermal Energies=              -280.427733
 Sum of electronic and thermal Enthalpies=            -280.426789
 Sum of electronic and thermal Free Energies=         -280.457707

                     E (Thermal)             CV                S
                      KCal/Mol        Cal/Mol-Kelvin    Cal/Mol-Kelvin
 Total                   17.147             12.247             65.074
 Electronic               0.000              0.000              0.000
 Translational            0.889              2.981             38.341
 Rotational               0.889              2.981             23.292
 Vibrational             15.370              6.286              3.442
 Vibration     1          0.728              1.574              1.162
 Vibration     2          0.749              1.516              1.046
 Vibration     3          0.870              1.216              0.621

                       ! Non-Optimized Parameters !

 1\1\GINC-N2109\Freq\RMP2-FC\Aug-CC-pVTZ\H1N1O3\CGAVINH\06-Mar-2022\1\\
 #p freq mp2/aug-cc-pvtz density=current\\title\\0,1\H\O,1,r1\O,2,r2,1,
 a1\N,3,r3,2,a2,1,d1,0\O,4,r4,3,a3,2,d2,0\\r1=0.98537664\r2=1.42673666\
 r3=1.38110764\r4=1.19478846\a1=100.6355057\a2=113.13777052\a3=115.6769
 362\d1=0.\d2=0.\\Version=ES64L-G16RevB.01\State=1-A'\HF=-279.5062868\M
 P2=-280.4550588\RMSD=4.284e-09\RMSF=2.982e-03\ZeroPoint=0.0233573\Ther
 mal=0.0273259\Dipole=-0.1196307,0.,-0.4155989\DipoleDeriv=0.3137685,0.
 ,0.0397552,0.,0.2985896,0.,-0.0207532,0.,0.1947027,-0.5316515,0.,0.279

 Normal termination of Gaussian 16 at Sun Mar  6 19:44:18 2022.
