 Gaussian 16, Revision B.01,
 Gaussian 16:  ES64L-G16RevB.01 20-Dec-2017

 ---------------------------------------
 #p freq mp2/aug-cc-pvtz density=current
 ---------------------------------------

 -----
 title
 -----
 Symbolic Z-matrix:
 Charge =  0 Multiplicity = 1

                         Standard orientation:
 ---------------------------------------------------------------------
 Center     Atomic      Atomic             Coordinates (Angstroms)
 Number     Number       Type             X           Y           Z
 ---------------------------------------------------------------------
      1          1           0        1.107433   -0.596313    0.000000
      2          8           0        1.315188    0.366913    0.000000
      3          8           0       -0.000000    0.919957    0.000000
      4          7           0       -0.992560   -0.040399    0.000000
      5          8           0       -0.585127   -1.176982    0.000000
 ---------------------------------------------------------------------

 SCF Done:  E(RHF) =  -279.504063263     A.U. after   14 cycles
 E2 =    -0.9509852456D+00 EUMP2 =    -0.28045504850904D+03
 E2 =    -0.9509852456D+00 EUMP2 =    -0.28045504850904D+03

 The electronic state is 1-A'.
 Alpha  occ. eigenvalues --  -20.72267 -20.68662 -20.66939 -15.82806  -1.63764
 Alpha  occ. eigenvalues --   -1.50194  -1.29501  -0.96226  -0.83209  -0.75632
 Alpha  occ. eigenvalues --   -0.73819  -0.63727  -0.61847  -0.61544  -0.50694
 Alpha  occ. eigenvalues --   -0.49830
 Alpha virt. eigenvalues --    0.03515   0.05636   0.09502   0.10031   0.12000
 Alpha virt. eigenvalues --    0.12248   0.14932   0.15201   0.17716   0.18043
 Alpha virt. eigenvalues --    0.18976   0.21101   0.21664   0.24133   0.24613

 Mulliken charges:
               1
     1  H    0.278938
     2  O   -0.273308
     3  O    0.040643
     4  N    0.154306
     5  O   -0.200580
 Sum of Mulliken charges =  -0.00000

 Dipole moment (field-independent basis, Debye):
    X=              0.0812    Y=             -1.0390    Z=              0.0000  Tot=              1.0422
 Quadrupole moment (field-independent basis, Debye-Ang):
   XX=            -23.4020   YY=            -22.9576   ZZ=            -21.9585
   XY=             -2.0020   XZ=              0.0000   YZ=              0.0000

  Exact polarizability:  31.021   4.224  30.132   0.000   0.000  17.655
 Approx polarizability:  24.642   0.494  27.995  -0.000  -0.000  15.573

                      1                      2                      3
                     A"                     A'                     A"
 Frequencies --    360.2020               398.3062               534.6931
 Red. masses --      1.5080                 7.0141                 3.0924
 Frc consts  --      0.1153                 0.6556                 0.5209
 IR Inten    --     65.1069                 8.2709                23.2842

                      4                      5                      6
                     A'                     A'                     A'
 Frequencies --    716.5812               836.7697               967.8387
 Red. masses --     13.0746                12.4792                 9.9004
 Frc consts  --      3.9556                 5.1481                 5.4640
 IR Inten    --    211.1764                36.1468                13.7810

                      7                      8                      9
                     A'                     A'                     A'
 Frequencies --   1422.0185              1511.2635              3485.9419
 Red. masses --      1.6125                 3.3149                 1.0638
 Frc consts  --      1.9211                 4.4606                 7.6163
 IR Inten    --     78.4666               138.1611                43.0062

 - Thermochemistry -
 -------------------
 Temperature   298.150 Kelvin.  Pressure   1.00000 Atm.
 Atom     1 has atomic number  1 and mass   1.00783

 Molecular mass:    62.99564 amu.
 Principal axes and moments of inertia in atomic units:
                           1         2         3
     Eigenvalues --    85.34422 223.11882 308.46304
           X            0.79291  -0.60933   0.00000
           Y            0.60933   0.79291   0.00000
           Z            0.00000   0.00000   1.00000
 This molecule is an asymmetric top.
 Rotational symmetry number  1.
 Rotational temperatures (Kelvin)      1.01488     0.38820     0.28079
 Rotational constants (GHZ):          21.14661     8.08870     5.85075
 Zero-point vibrational energy      61210.6 (Joules/Mol)
                                   14.62969 (Kcal/Mol)
 Warning -- explicit consideration of   3 degrees of freedom as
           vibrations may cause significant error
 Vibrational temperatures:    518.25   573.07   769.30  1031.00  1203.92
          (Kelvin)           1392.50  2045.97  2174.37  5015.49

 Zero-point correction=                           0.023314 (Hartree/Particle)
 Thermal correction to Energy=                    0.027235
 Thermal correction to Enthalpy=                  0.028179
 Thermal correction to Gibbs Free Energy=        -0.002655
 Sum of electronic and zero-point Energies=           -280.431735
 Sum of electronic and thermal Energies=              -280.427813
 Sum of electronic and thermal Enthalpies=            -280.426869
 Sum of electronic and thermal Free Energies=         -280.457704

                     E (Thermal)             CV                S
                      KCal/Mol        Cal/Mol-Kelvin    Cal/Mol-Kelvin
 Total                   17.090             12.137             64.897
 Electronic               0.000              0.000              0.000
 Translational            0.889              2.981             38.341
 Rotational               0.889              2.981             23.289
 Vibrational             15.313              6.175              3.267
 Vibration     1          0.735              1.554              1.121
 Vibration     2          0.765              1.474              0.969
 Vibration     3          0.890              1.173              0.577

                       ! Non-Optimized Parameters !

 1\1\GINC-N2110\Freq\RMP2-FC\Aug-CC-pVTZ\H1N1O3\CGAVINH\06-Mar-2022\1\\
 #p freq mp2/aug-cc-pvtz density=current\\title\\0,1\H\O,1,r1\O,2,r2,1,
 a1\N,3,r3,2,a2,1,d1,0\O,4,r4,3,a3,2,d2,0\\r1=0.98537664\r2=1.42673666\
 r3=1.38110764\r4=1.20740375\a1=100.6355057\a2=113.13777052\a3=114.3339
 2022\d1=0.\d2=0.\\Version=ES64L-G16RevB.01\State=1-A'\HF=-279.5040633\
 MP2=-280.4550485\RMSD=5.224e-09\RMSF=5.571e-03\ZeroPoint=0.0233139\The
 rmal=0.0272351\Dipole=-0.1174,0.,-0.3928724\DipoleDeriv=0.3172106,0.,0
 .0382982,0.,0.2979968,0.,-0.0238538,0.,0.2008948,-0.5292954,0.,0.28590

 Normal termination of Gaussian 16 at Sun Mar  6 19:17:47 2022.
