 Gaussian 16, Revision B.01,
 Gaussian 16:  ES64L-G16RevB.01 20-Dec-2017

 ---------------------------------------
 #p freq mp2/aug-cc-pvtz density=current
 ---------------------------------------

 -----
 title
 -----
 Symbolic Z-matrix:
 Charge =  0 Multiplicity = 1

                         Standard orientation:
 ---------------------------------------------------------------------
 Center     Atomic      Atomic             Coordinates (Angstroms)
 Number     Number       Type             X           Y           Z
 ---------------------------------------------------------------------
      1          1           0        0.544639   -1.136733    0.087271
      2          8           0        1.276712   -0.484365   -0.009945
      3          8           0        0.542664    0.738987    0.002709
      4          7           0       -0.825578    0.550915    0.003390
      5          8           0       -1.165075   -0.594581   -0.006639
 ---------------------------------------------------------------------

 SCF Done:  E(RHF) =  -279.506370603     A.U. after   16 cycles
 E2 =    -0.9487573813D+00 EUMP2 =    -0.28045512798463D+03
 E2 =    -0.9487573813D+00 EUMP2 =    -0.28045512798463D+03

 The electronic state is 1-A.
 Alpha  occ. eigenvalues --  -20.71971 -20.68700 -20.66846 -15.82579  -1.64405
 Alpha  occ. eigenvalues --   -1.50510  -1.29372  -0.96022  -0.83418  -0.75877
 Alpha  occ. eigenvalues --   -0.74007  -0.63808  -0.61922  -0.61692  -0.50453
 Alpha  occ. eigenvalues --   -0.49759
 Alpha virt. eigenvalues --    0.03499   0.06042   0.09512   0.10040   0.11922
 Alpha virt. eigenvalues --    0.12264   0.14975   0.15192   0.17691   0.18097
 Alpha virt. eigenvalues --    0.18928   0.21165   0.21685   0.24236   0.24627

 Mulliken charges:
               1
     1  H    0.278377
     2  O   -0.273746
     3  O    0.037183
     4  N    0.154459
     5  O   -0.196273
 Sum of Mulliken charges =  -0.00000

 Dipole moment (field-independent basis, Debye):
    X=             -0.5973    Y=             -0.9129    Z=              0.1388  Tot=              1.0997
 Quadrupole moment (field-independent basis, Debye-Ang):
   XX=            -25.1069   YY=            -21.2224   ZZ=            -21.9131
   XY=             -0.3940   XZ=              0.0652   YZ=             -0.2482

  Exact polarizability:  34.478   0.731  26.281   0.009  -0.053  17.634
 Approx polarizability:  26.119   1.632  26.082  -0.073  -0.047  15.534

                      1                      2                      3
                      A                      A                      A
 Frequencies --    337.2706               400.5728               518.9831
 Red. masses --      1.5218                 6.4715                 3.2118
 Frc consts  --      0.1020                 0.6118                 0.5097
 IR Inten    --     63.3296                 9.5981                22.3814

                      4                      5                      6
                      A                      A                      A
 Frequencies --    711.5969               837.0707               970.9803
 Red. masses --     12.7825                12.3771                 9.8095
 Frc consts  --      3.8136                 5.1097                 5.4490
 IR Inten    --    217.8236                31.5399                12.6968

                      7                      8                      9
                      A                      A                      A
 Frequencies --   1436.5537              1569.7723              3489.4874
 Red. masses --      1.3018                 6.4340                 1.0638
 Frc consts  --      1.5829                 9.3412                 7.6320
 IR Inten    --     79.4642               149.5819                41.6133

 - Thermochemistry -
 -------------------
 Temperature   298.150 Kelvin.  Pressure   1.00000 Atm.
 Atom     1 has atomic number  1 and mass   1.00783

 Molecular mass:    62.99564 amu.
 Principal axes and moments of inertia in atomic units:
                           1         2         3
     Eigenvalues --    84.54200 222.66099 307.13400
           X            0.99987  -0.01603   0.00081
           Y            0.01604   0.99986  -0.00424
           Z           -0.00074   0.00426   0.99999
 This molecule is an asymmetric top.
 Rotational symmetry number  1.
 Rotational temperatures (Kelvin)      1.02451     0.38899     0.28201
 Rotational constants (GHZ):          21.34727     8.10533     5.87607
 Zero-point vibrational energy      61441.9 (Joules/Mol)
                                   14.68497 (Kcal/Mol)
 Warning -- explicit consideration of   3 degrees of freedom as
           vibrations may cause significant error
 Vibrational temperatures:    485.26   576.33   746.70  1023.83  1204.36
          (Kelvin)           1397.02  2066.88  2258.55  5020.59

 Zero-point correction=                           0.023402 (Hartree/Particle)
 Thermal correction to Energy=                    0.027357
 Thermal correction to Enthalpy=                  0.028301
 Thermal correction to Gibbs Free Energy=        -0.002589
 Sum of electronic and zero-point Energies=           -280.431726
 Sum of electronic and thermal Energies=              -280.427771
 Sum of electronic and thermal Enthalpies=            -280.426827
 Sum of electronic and thermal Free Energies=         -280.457716

                     E (Thermal)             CV                S
                      KCal/Mol        Cal/Mol-Kelvin    Cal/Mol-Kelvin
 Total                   17.167             12.200             65.013
 Electronic               0.000              0.000              0.000
 Translational            0.889              2.981             38.341
 Rotational               0.889              2.981             23.273
 Vibrational             15.389              6.239              3.399
 Vibration     1          0.718              1.601              1.225
 Vibration     2          0.766              1.469              0.961
 Vibration     3          0.874              1.208              0.612

                       ! Non-Optimized Parameters !

 1\1\GINC-N2218\Freq\RMP2-FC\Aug-CC-pVTZ\H1N1O3\CGAVINH\06-Mar-2022\1\\
 #p freq mp2/aug-cc-pvtz density=current\\title\\0,1\H\O,1,r1\O,2,r2,1,
 a1\N,3,r3,2,a2,1,d1,0\O,4,r4,3,a3,2,d2,0\\r1=0.98537664\r2=1.42673666\
 r3=1.38110764\r4=1.19478846\a1=100.6355057\a2=113.13777052\a3=114.3339
 2022\d1=-6.04387094\d2=0.\\Version=ES64L-G16RevB.01\State=1-A\HF=-279.
 5063706\MP2=-280.455128\RMSD=6.599e-09\RMSF=6.732e-04\ZeroPoint=0.0234
 02\Thermal=0.0273571\Dipole=-0.111385,0.0165396,-0.4177392\DipoleDeriv
 =0.3148898,-0.0100961,0.0396537,-0.0140123,0.2991808,-0.0033547,-0.021

 Normal termination of Gaussian 16 at Sun Mar  6 19:57:00 2022.
