 Gaussian 16, Revision B.01,
 Gaussian 16:  ES64L-G16RevB.01 20-Dec-2017

 ---------------------------------------
 #p freq mp2/aug-cc-pvtz density=current
 ---------------------------------------

 -----
 title
 -----
 Symbolic Z-matrix:
 Charge =  0 Multiplicity = 1

                         Standard orientation:
 ---------------------------------------------------------------------
 Center     Atomic      Atomic             Coordinates (Angstroms)
 Number     Number       Type             X           Y           Z
 ---------------------------------------------------------------------
      1          1           0        1.119364   -0.588325    0.000000
      2          8           0        1.319512    0.376511    0.000000
      3          8           0        0.000000    0.919159    0.000000
      4          7           0       -0.984951   -0.048999    0.000000
      5          8           0       -0.597600   -1.179255    0.000000
 ---------------------------------------------------------------------

 SCF Done:  E(RHF) =  -279.506307784     A.U. after   14 cycles
 E2 =    -0.9487732236D+00 EUMP2 =    -0.28045508100758D+03
 E2 =    -0.9487732236D+00 EUMP2 =    -0.28045508100758D+03

 The electronic state is 1-A'.
 Alpha  occ. eigenvalues --  -20.72109 -20.68786 -20.66908 -15.82521  -1.64274
 Alpha  occ. eigenvalues --   -1.50688  -1.29433  -0.96075  -0.83310  -0.75867
 Alpha  occ. eigenvalues --   -0.73977  -0.63912  -0.61989  -0.61919  -0.50247
 Alpha  occ. eigenvalues --   -0.49821
 Alpha virt. eigenvalues --    0.03495   0.06097   0.09510   0.10057   0.11975
 Alpha virt. eigenvalues --    0.12269   0.14890   0.15184   0.17772   0.18037
 Alpha virt. eigenvalues --    0.18953   0.21112   0.21674   0.24261   0.24635

 Mulliken charges:
               1
     1  H    0.278444
     2  O   -0.274153
     3  O    0.037676
     4  N    0.154513
     5  O   -0.196480
 Sum of Mulliken charges =  -0.00000

 Dipole moment (field-independent basis, Debye):
    X=              0.0816    Y=             -1.0959    Z=              0.0000  Tot=              1.0989
 Quadrupole moment (field-independent basis, Debye-Ang):
   XX=            -23.4054   YY=            -22.9517   ZZ=            -21.9382
   XY=             -1.9634   XZ=              0.0000   YZ=              0.0000

  Exact polarizability:  30.965   4.242  30.018   0.000   0.000  17.646
 Approx polarizability:  24.503   0.653  27.822  -0.000  -0.000  15.528

                      1                      2                      3
                     A"                     A'                     A"
 Frequencies --    351.0378               379.5120               515.7416
 Red. masses --      1.5686                 7.1352                 2.8750
 Frc consts  --      0.1139                 0.6055                 0.4506
 IR Inten    --     62.7343                 7.6016                25.7930

                      4                      5                      6
                     A'                     A'                     A'
 Frequencies --    702.0882               839.4407               967.5528
 Red. masses --     13.1607                12.4016                 9.9895
 Frc consts  --      3.8222                 5.1488                 5.5099
 IR Inten    --    215.3718                34.9035                13.6926

                      7                      8                      9
                     A'                     A'                     A'
 Frequencies --   1440.4255              1568.8513              3490.1813
 Red. masses --      1.3028                 6.3389                 1.0641
 Frc consts  --      1.5926                 9.1924                 7.6371
 IR Inten    --     78.8144               152.9019                40.6695

 - Thermochemistry -
 -------------------
 Temperature   298.150 Kelvin.  Pressure   1.00000 Atm.
 Atom     1 has atomic number  1 and mass   1.00783

 Molecular mass:    62.99564 amu.
 Principal axes and moments of inertia in atomic units:
                           1         2         3
     Eigenvalues --    83.97923 225.95319 309.93241
           X            0.79096  -0.61187   0.00000
           Y            0.61187   0.79096   0.00000
           Z            0.00000   0.00000   1.00000
 This molecule is an asymmetric top.
 Rotational symmetry number  1.
 Rotational temperatures (Kelvin)      1.03137     0.38333     0.27946
 Rotational constants (GHZ):          21.49033     7.98723     5.82302
 Zero-point vibrational energy      61337.5 (Joules/Mol)
                                   14.66002 (Kcal/Mol)
 Warning -- explicit consideration of   3 degrees of freedom as
           vibrations may cause significant error
 Vibrational temperatures:    505.07   546.03   742.04  1010.15  1207.77
          (Kelvin)           1392.09  2072.45  2257.23  5021.59

 Zero-point correction=                           0.023362 (Hartree/Particle)
 Thermal correction to Energy=                    0.027329
 Thermal correction to Enthalpy=                  0.028273
 Thermal correction to Gibbs Free Energy=        -0.002642
 Sum of electronic and zero-point Energies=           -280.431719
 Sum of electronic and thermal Energies=              -280.427752
 Sum of electronic and thermal Enthalpies=            -280.426808
 Sum of electronic and thermal Free Energies=         -280.457723

                     E (Thermal)             CV                S
                      KCal/Mol        Cal/Mol-Kelvin    Cal/Mol-Kelvin
 Total                   17.149             12.242             65.065
 Electronic               0.000              0.000              0.000
 Translational            0.889              2.981             38.341
 Rotational               0.889              2.981             23.290
 Vibrational             15.372              6.280              3.434
 Vibration     1          0.728              1.573              1.162
 Vibration     2          0.750              1.514              1.041
 Vibration     3          0.871              1.215              0.620

                       ! Non-Optimized Parameters !

 1\1\GINC-N2108\Freq\RMP2-FC\Aug-CC-pVTZ\H1N1O3\CGAVINH\06-Mar-2022\1\\
 #p freq mp2/aug-cc-pvtz density=current\\title\\0,1\H\O,1,r1\O,2,r2,1,
 a1\N,3,r3,2,a2,1,d1,0\O,4,r4,3,a3,2,d2,0\\r1=0.98537664\r2=1.42673666\
 r3=1.38110764\r4=1.19478846\a1=100.6355057\a2=113.13777052\a3=115.5901
 9664\d1=0.\d2=0.\\Version=ES64L-G16RevB.01\State=1-A'\HF=-279.5063078\
 MP2=-280.455081\RMSD=4.293e-09\RMSF=2.797e-03\ZeroPoint=0.0233622\Ther
 mal=0.0273288\Dipole=-0.1190252,0.,-0.4156494\DipoleDeriv=0.3139661,0.
 ,0.0396345,0.,0.2985557,0.,-0.0209932,0.,0.1950361,-0.5313954,0.,0.279

 Normal termination of Gaussian 16 at Sun Mar  6 19:44:01 2022.
