 Gaussian 16, Revision B.01,
 Gaussian 16:  ES64L-G16RevB.01 20-Dec-2017

 ---------------------------------------
 #p freq mp2/aug-cc-pvtz density=current
 ---------------------------------------

 -----
 title
 -----
 Symbolic Z-matrix:
 Charge =  0 Multiplicity = 1

                         Standard orientation:
 ---------------------------------------------------------------------
 Center     Atomic      Atomic             Coordinates (Angstroms)
 Number     Number       Type             X           Y           Z
 ---------------------------------------------------------------------
      1          1           0        1.122806   -0.579807    0.000000
      2          8           0        1.320748    0.385484    0.000000
      3          8           0        0.000000    0.925115   -0.000000
      4          7           0       -1.000373   -0.062707   -0.000000
      5          8           0       -0.585773   -1.183254   -0.000000
 ---------------------------------------------------------------------

 SCF Done:  E(RHF) =  -279.504078948     A.U. after   14 cycles
 E2 =    -0.9509381982D+00 EUMP2 =    -0.28045501714642D+03
 E2 =    -0.9509381982D+00 EUMP2 =    -0.28045501714642D+03

 The electronic state is 1-A'.
 Alpha  occ. eigenvalues --  -20.71571 -20.69294 -20.66683 -15.82905  -1.63881
 Alpha  occ. eigenvalues --   -1.50478  -1.28497  -0.96182  -0.83194  -0.75613
 Alpha  occ. eigenvalues --   -0.73457  -0.63684  -0.62063  -0.61920  -0.50405
 Alpha  occ. eigenvalues --   -0.49505
 Alpha virt. eigenvalues --    0.03518   0.05667   0.09498   0.10032   0.11972
 Alpha virt. eigenvalues --    0.12204   0.14987   0.15269   0.17768   0.17992
 Alpha virt. eigenvalues --    0.18994   0.21077   0.21679   0.24166   0.24626

 Mulliken charges:
               1
     1  H    0.277534
     2  O   -0.270973
     3  O    0.018466
     4  N    0.162791
     5  O   -0.187818
 Sum of Mulliken charges =  -0.00000

 Dipole moment (field-independent basis, Debye):
    X=             -0.0109    Y=             -1.2104    Z=              0.0000  Tot=              1.2105
 Quadrupole moment (field-independent basis, Debye-Ang):
   XX=            -23.2929   YY=            -22.9935   ZZ=            -21.9733
   XY=             -1.9217   XZ=             -0.0000   YZ=              0.0000

  Exact polarizability:  31.045   4.313  30.217   0.000  -0.000  17.703
 Approx polarizability:  24.773   0.644  28.056   0.000  -0.000  15.556

                      1                      2                      3
                     A"                     A'                     A"
 Frequencies --    341.5704               376.4107               517.8129
 Red. masses --      1.4973                 7.2818                 3.1441
 Frc consts  --      0.1029                 0.6079                 0.4967
 IR Inten    --     64.3744                10.3542                23.5280

                      4                      5                      6
                     A'                     A'                     A'
 Frequencies --    626.1886               834.2874               964.9590
 Red. masses --     13.0541                12.0705                10.1576
 Frc consts  --      3.0158                 4.9500                 5.5726
 IR Inten    --    237.1934                28.1169                11.0664

                      7                      8                      9
                     A'                     A'                     A'
 Frequencies --   1435.1625              1557.9593              3490.2529
 Red. masses --      1.3232                 5.8346                 1.0641
 Frc consts  --      1.6058                 8.3440                 7.6373
 IR Inten    --     78.6260               149.9340                38.5617

 - Thermochemistry -
 -------------------
 Temperature   298.150 Kelvin.  Pressure   1.00000 Atm.
 Atom     1 has atomic number  1 and mass   1.00783

 Molecular mass:    62.99564 amu.
 Principal axes and moments of inertia in atomic units:
                           1         2         3
     Eigenvalues --    84.56614 227.91075 312.47688
           X            0.78875  -0.61471   0.00000
           Y            0.61471   0.78875   0.00000
           Z           -0.00000   0.00000   1.00000
 This molecule is an asymmetric top.
 Rotational symmetry number  1.
 Rotational temperatures (Kelvin)      1.02422     0.38003     0.27719
 Rotational constants (GHZ):          21.34118     7.91863     5.77560
 Zero-point vibrational energy      60678.2 (Joules/Mol)
                                   14.50244 (Kcal/Mol)
 Warning -- explicit consideration of   3 degrees of freedom as
           vibrations may cause significant error
 Vibrational temperatures:    491.44   541.57   745.02   900.95  1200.35
          (Kelvin)           1388.36  2064.88  2241.56  5021.70

 Zero-point correction=                           0.023111 (Hartree/Particle)
 Thermal correction to Energy=                    0.027126
 Thermal correction to Enthalpy=                  0.028070
 Thermal correction to Gibbs Free Energy=        -0.002931
 Sum of electronic and zero-point Energies=           -280.431906
 Sum of electronic and thermal Energies=              -280.427891
 Sum of electronic and thermal Enthalpies=            -280.426947
 Sum of electronic and thermal Free Energies=         -280.457948

                     E (Thermal)             CV                S
                      KCal/Mol        Cal/Mol-Kelvin    Cal/Mol-Kelvin
 Total                   17.022             12.430             65.248
 Electronic               0.000              0.000              0.000
 Translational            0.889              2.981             38.341
 Rotational               0.889              2.981             23.314
 Vibrational             15.245              6.468              3.594
 Vibration     1          0.721              1.592              1.205
 Vibration     2          0.747              1.520              1.054
 Vibration     3          0.873              1.211              0.615

                       ! Non-Optimized Parameters !

 1\1\GINC-N2095\Freq\RMP2-FC\Aug-CC-pVTZ\H1N1O3\CGAVINH\06-Mar-2022\1\\
 #p freq mp2/aug-cc-pvtz density=current\\title\\0,1\H\O,1,r1\O,2,r2,1,
 a1\N,3,r3,2,a2,1,d1,0\O,4,r4,3,a3,2,d2,0\\r1=0.98537664\r2=1.42673666\
 r3=1.40589429\r4=1.19478846\a1=100.6355057\a2=113.13777052\a3=114.3339
 2022\d1=0.\d2=0.\\Version=ES64L-G16RevB.01\State=1-A'\HF=-279.5040789\
 MP2=-280.4550171\RMSD=4.994e-09\RMSF=3.086e-03\ZeroPoint=0.0231111\The
 rmal=0.0271263\Dipole=-0.0914455,0.,-0.4673708\DipoleDeriv=0.3110878,0
 .,0.0396102,0.,0.2977268,0.,-0.0215323,0.,0.1897457,-0.5217563,0.,0.27

 Normal termination of Gaussian 16 at Sun Mar  6 19:08:46 2022.
