 Gaussian 16, Revision B.01,
 Gaussian 16:  ES64L-G16RevB.01 20-Dec-2017

 ---------------------------------------
 #p freq mp2/aug-cc-pvtz density=current
 ---------------------------------------

 -----
 title
 -----
 Symbolic Z-matrix:
 Charge =  0 Multiplicity = 1

                         Standard orientation:
 ---------------------------------------------------------------------
 Center     Atomic      Atomic             Coordinates (Angstroms)
 Number     Number       Type             X           Y           Z
 ---------------------------------------------------------------------
      1          1           0        1.550137    1.696767    0.000000
      2          8           0        1.454065    0.722537    0.000000
      3          8           0       -0.000000    0.672699    0.000000
      4          7           0       -0.261698   -0.762420   -0.000000
      5          8           0       -1.418847   -0.940214   -0.000000
 ---------------------------------------------------------------------

 SCF Done:  E(RHF) =  -279.501120998     A.U. after   14 cycles
 E2 =    -0.9455246393D+00 EUMP2 =    -0.28044664563727D+03
 E2 =    -0.9455246393D+00 EUMP2 =    -0.28044664563727D+03

 The electronic state is 1-A'.
 Alpha  occ. eigenvalues --  -20.69062 -20.68411 -20.66075 -15.81263  -1.62380
 Alpha  occ. eigenvalues --   -1.49454  -1.25248  -0.94784  -0.77199  -0.75837
 Alpha  occ. eigenvalues --   -0.71156  -0.67783  -0.62016  -0.58895  -0.48488
 Alpha  occ. eigenvalues --   -0.47223
 Alpha virt. eigenvalues --    0.02944   0.07183   0.08599   0.10174   0.13396
 Alpha virt. eigenvalues --    0.13403   0.14364   0.15417   0.17840   0.19420
 Alpha virt. eigenvalues --    0.19984   0.20636   0.22085   0.23570   0.23747

 Mulliken charges:
               1
     1  H    0.258236
     2  O   -0.209576
     3  O   -0.146493
     4  N    0.291071
     5  O   -0.193238
 Sum of Mulliken charges =  -0.00000

 Dipole moment (field-independent basis, Debye):
    X=              0.5135    Y=              1.3735    Z=              0.0000  Tot=              1.4663
 Quadrupole moment (field-independent basis, Debye-Ang):
   XX=            -22.4735   YY=            -18.5768   ZZ=            -22.0229
   XY=              3.2757   XZ=              0.0000   YZ=             -0.0000

  Exact polarizability:  34.048   9.519  30.392   0.000   0.000  17.952
 Approx polarizability:  29.034   5.119  23.626   0.000   0.000  15.538

                      1                      2                      3
                     A"                     A"                     A'
 Frequencies --    212.5576               261.1268               349.1558
 Red. masses --      4.4909                 1.3342                 8.9901
 Frc consts  --      0.1195                 0.0536                 0.6457
 IR Inten    --     34.4770                89.9522                 3.9019

                      4                      5                      6
                     A'                     A'                     A'
 Frequencies --    451.4943               788.4559               967.7557
 Red. masses --     12.3266                13.2941                15.1916
 Frc consts  --      1.4805                 4.8693                 8.3827
 IR Inten    --    200.3575               176.9952                20.9288

                      7                      8                      9
                     A'                     A'                     A'
 Frequencies --   1401.1694              1677.5506              3651.2062
 Red. masses --      1.1275                12.9708                 1.0676
 Frc consts  --      1.3043                21.5064                 8.3853
 IR Inten    --    152.0813               138.4942                81.2826

 - Thermochemistry -
 -------------------
 Temperature   298.150 Kelvin.  Pressure   1.00000 Atm.
 Atom     1 has atomic number  1 and mass   1.00783

 Molecular mass:    62.99564 amu.
 Principal axes and moments of inertia in atomic units:
                           1         2         3
     Eigenvalues --    32.86558 360.25532 393.12091
           X            0.81005  -0.58636   0.00000
           Y            0.58636   0.81005   0.00000
           Z            0.00000  -0.00000   1.00000
 This molecule is an asymmetric top.
 Rotational symmetry number  1.
 Rotational temperatures (Kelvin)      2.63540     0.24042     0.22032
 Rotational constants (GHZ):          54.91280     5.00962     4.59080
 Zero-point vibrational energy      58380.6 (Joules/Mol)
                                   13.95330 (Kcal/Mol)
 Warning -- explicit consideration of   4 degrees of freedom as
           vibrations may cause significant error
 Vibrational temperatures:    305.82   375.70   502.36   649.60  1134.41
          (Kelvin)           1392.38  2015.97  2413.62  5253.27

 Zero-point correction=                           0.022236 (Hartree/Particle)
 Thermal correction to Energy=                    0.026839
 Thermal correction to Enthalpy=                  0.027783
 Thermal correction to Gibbs Free Energy=        -0.004232
 Sum of electronic and zero-point Energies=           -280.424410
 Sum of electronic and thermal Energies=              -280.419807
 Sum of electronic and thermal Enthalpies=            -280.418863
 Sum of electronic and thermal Free Energies=         -280.450878

                     E (Thermal)             CV                S
                      KCal/Mol        Cal/Mol-Kelvin    Cal/Mol-Kelvin
 Total                   16.842             13.691             67.382
 Electronic               0.000              0.000              0.000
 Translational            0.889              2.981             38.341
 Rotational               0.889              2.981             23.058
 Vibrational             15.064              7.729              5.984
 Vibration     1          0.644              1.822              2.022
 Vibration     2          0.669              1.744              1.654
 Vibration     3          0.726              1.577              1.170
 Vibration     4          0.810              1.358              0.791

                       ! Non-Optimized Parameters !

 1\1\GINC-N2110\Freq\RMP2-FC\Aug-CC-pVTZ\H1N1O3\CGAVINH\21-Feb-2022\1\\
 #p freq mp2/aug-cc-pvtz density=current\\title\\0,1\H\O,1,r1\O,2,r2,1,
 a1\N,3,r3,2,a2,1,d1,0\O,4,r4,3,a3,2,d2,0\\r1=0.97895602\r2=1.45491931\
 r3=1.45878406\r4=1.17072885\a1=97.59494903\a2=102.29752444\a3=109.0695
 5123\d1=180.\d2=180.\\Version=ES64L-G16RevB.01\State=1-A'\HF=-279.5011
 21\MP2=-280.4466456\RMSD=3.792e-09\RMSF=3.386e-03\ZeroPoint=0.022236\T
 hermal=0.0268389\Dipole=-0.1480196,0.,-0.5575833\DipoleDeriv=0.2675715
 ,0.,0.0479934,0.,0.3541768,0.,0.0801835,0.,0.2741332,-0.3280466,0.,-0.

 Normal termination of Gaussian 16 at Mon Feb 21 20:02:09 2022.
