 Gaussian 16, Revision B.01,
 Gaussian 16:  ES64L-G16RevB.01 20-Dec-2017

 ---------------------------------------
 #p freq mp2/aug-cc-pvtz density=current
 ---------------------------------------

 -----
 title
 -----
 Symbolic Z-matrix:
 Charge =  0 Multiplicity = 1

                         Standard orientation:
 ---------------------------------------------------------------------
 Center     Atomic      Atomic             Coordinates (Angstroms)
 Number     Number       Type             X           Y           Z
 ---------------------------------------------------------------------
      1          1           0        1.549837    1.693970    0.000000
      2          8           0        1.454065    0.722647    0.000000
      3          8           0       -0.000000    0.672790    0.000000
      4          7           0       -0.261678   -0.762333   -0.000000
      5          8           0       -1.418826   -0.940142   -0.000000
 ---------------------------------------------------------------------

 SCF Done:  E(RHF) =  -279.501305347     A.U. after   14 cycles
 E2 =    -0.9453845454D+00 EUMP2 =    -0.28044668989282D+03
 E2 =    -0.9453845454D+00 EUMP2 =    -0.28044668989282D+03

 The electronic state is 1-A'.
 Alpha  occ. eigenvalues --  -20.69070 -20.68416 -20.66053 -15.81269  -1.62387
 Alpha  occ. eigenvalues --   -1.49489  -1.25304  -0.94790  -0.77222  -0.75861
 Alpha  occ. eigenvalues --   -0.71163  -0.67828  -0.62025  -0.58909  -0.48498
 Alpha  occ. eigenvalues --   -0.47231
 Alpha virt. eigenvalues --    0.02949   0.07178   0.08598   0.10174   0.13396
 Alpha virt. eigenvalues --    0.13401   0.14377   0.15427   0.17836   0.19419
 Alpha virt. eigenvalues --    0.19983   0.20636   0.22084   0.23562   0.23745

 Mulliken charges:
               1
     1  H    0.255959
     2  O   -0.207292
     3  O   -0.146692
     4  N    0.291267
     5  O   -0.193243
 Sum of Mulliken charges =  -0.00000

 Dipole moment (field-independent basis, Debye):
    X=              0.5120    Y=              1.3698    Z=              0.0000  Tot=              1.4623
 Quadrupole moment (field-independent basis, Debye-Ang):
   XX=            -22.4722   YY=            -18.5883   ZZ=            -22.0192
   XY=              3.2699   XZ=              0.0000   YZ=             -0.0000

  Exact polarizability:  34.034   9.505  30.351   0.000   0.000  17.945
 Approx polarizability:  29.026   5.115  23.595   0.000   0.000  15.533

                      1                      2                      3
                     A"                     A"                     A'
 Frequencies --    143.6284               234.3580               347.0677
 Red. masses --      1.3097                 4.7870                 8.8870
 Frc consts  --      0.0159                 0.1549                 0.6307
 IR Inten    --    112.6212                12.1215                 4.0954

                      4                      5                      6
                     A'                     A'                     A'
 Frequencies --    451.5422               787.6379               967.6298
 Red. masses --     12.3235                13.1957                15.2505
 Frc consts  --      1.4804                 4.8232                 8.4130
 IR Inten    --    200.1774               175.2972                21.3737

                      7                      8                      9
                     A'                     A'                     A'
 Frequencies --   1392.7902              1677.4878              3688.1808
 Red. masses --      1.1290                13.0427                 1.0676
 Frc consts  --      1.2903                21.6240                 8.5559
 IR Inten    --    152.2868               139.0816                81.6549

 - Thermochemistry -
 -------------------
 Temperature   298.150 Kelvin.  Pressure   1.00000 Atm.
 Atom     1 has atomic number  1 and mass   1.00783

 Molecular mass:    62.99564 amu.
 Principal axes and moments of inertia in atomic units:
                           1         2         3
     Eigenvalues --    32.85815 360.22344 393.08160
           X            0.81008  -0.58632   0.00000
           Y            0.58632   0.81008   0.00000
           Z            0.00000  -0.00000   1.00000
 This molecule is an asymmetric top.
 Rotational symmetry number  1.
 Rotational temperatures (Kelvin)      2.63600     0.24044     0.22035
 Rotational constants (GHZ):          54.92522     5.01006     4.59126
 Zero-point vibrational energy      57961.0 (Joules/Mol)
                                   13.85301 (Kcal/Mol)
 Warning -- explicit consideration of   4 degrees of freedom as
           vibrations may cause significant error
 Vibrational temperatures:    206.65   337.19   499.35   649.67  1133.24
          (Kelvin)           1392.20  2003.91  2413.53  5306.47

 Zero-point correction=                           0.022076 (Hartree/Particle)
 Thermal correction to Energy=                    0.026833
 Thermal correction to Enthalpy=                  0.027777
 Thermal correction to Gibbs Free Energy=        -0.004683
 Sum of electronic and zero-point Energies=           -280.424614
 Sum of electronic and thermal Energies=              -280.419857
 Sum of electronic and thermal Enthalpies=            -280.418913
 Sum of electronic and thermal Free Energies=         -280.451373

                     E (Thermal)             CV                S
                      KCal/Mol        Cal/Mol-Kelvin    Cal/Mol-Kelvin
 Total                   16.838             13.832             68.317
 Electronic               0.000              0.000              0.000
 Translational            0.889              2.981             38.341
 Rotational               0.889              2.981             23.058
 Vibrational             15.060              7.870              6.919
 Vibration     1          0.616              1.910              2.755
 Vibration     2          0.654              1.788              1.845
 Vibration     3          0.725              1.581              1.179
 Vibration     4          0.810              1.357              0.791

                       ! Non-Optimized Parameters !

 1\1\GINC-N2228\Freq\RMP2-FC\Aug-CC-pVTZ\H1N1O3\CGAVINH\21-Feb-2022\1\\
 #p freq mp2/aug-cc-pvtz density=current\\title\\0,1\H\O,1,r1\O,2,r2,1,
 a1\N,3,r3,2,a2,1,d1,0\O,4,r4,3,a3,2,d2,0\\r1=0.97603281\r2=1.45491931\
 r3=1.45878406\r4=1.17072885\a1=97.59494903\a2=102.29752444\a3=109.0695
 5123\d1=180.\d2=180.\\Version=ES64L-G16RevB.01\State=1-A'\HF=-279.5013
 053\MP2=-280.4466899\RMSD=3.792e-09\RMSF=2.416e-03\ZeroPoint=0.0220762
 \Thermal=0.0268329\Dipole=-0.147575,0.,-0.5560678\DipoleDeriv=0.267223
 3,0.,0.0480827,0.,0.3545779,0.,0.0807568,0.,0.2745662,-0.3280621,0.,-0

 Normal termination of Gaussian 16 at Mon Feb 21 19:59:30 2022.
