 Gaussian 16, Revision B.01,
 Gaussian 16:  ES64L-G16RevB.01 20-Dec-2017

 ---------------------------------------
 #p freq mp2/aug-cc-pvtz density=current
 ---------------------------------------

 -----
 title
 -----
 Symbolic Z-matrix:
 Charge =  0 Multiplicity = 1

                         Standard orientation:
 ---------------------------------------------------------------------
 Center     Atomic      Atomic             Coordinates (Angstroms)
 Number     Number       Type             X           Y           Z
 ---------------------------------------------------------------------
      1          1           0        1.111343   -0.587840    0.000000
      2          8           0        1.315787    0.365040    0.000000
      3          8           0        0.000000    0.916658    0.000000
      4          7           0       -0.991519   -0.044772    0.000000
      5          8           0       -0.587125   -1.169043    0.000000
 ---------------------------------------------------------------------

 SCF Done:  E(RHF) =  -279.506982271     A.U. after   14 cycles
 E2 =    -0.9481638590D+00 EUMP2 =    -0.28045514613050D+03
 E2 =    -0.9481638590D+00 EUMP2 =    -0.28045514613050D+03

 The electronic state is 1-A'.
 Alpha  occ. eigenvalues --  -20.71997 -20.68714 -20.66791 -15.82603  -1.64449
 Alpha  occ. eigenvalues --   -1.50609  -1.29577  -0.96102  -0.83520  -0.75906
 Alpha  occ. eigenvalues --   -0.74015  -0.63980  -0.61907  -0.61862  -0.50459
 Alpha  occ. eigenvalues --   -0.49797
 Alpha virt. eigenvalues --    0.03515   0.06030   0.09505   0.10041   0.11963
 Alpha virt. eigenvalues --    0.12258   0.14951   0.15212   0.17735   0.18029
 Alpha virt. eigenvalues --    0.18975   0.21115   0.21682   0.24218   0.24632

 Mulliken charges:
               1
     1  H    0.271301
     2  O   -0.266721
     3  O    0.037873
     4  N    0.153438
     5  O   -0.195892
 Sum of Mulliken charges =  -0.00000

 Dipole moment (field-independent basis, Debye):
    X=              0.0550    Y=             -1.0842    Z=              0.0000  Tot=              1.0855
 Quadrupole moment (field-independent basis, Debye-Ang):
   XX=            -23.3630   YY=            -22.9573   ZZ=            -21.9198
   XY=             -1.9643   XZ=              0.0000   YZ=              0.0000

  Exact polarizability:  30.855   4.143  29.781   0.000   0.000  17.594
 Approx polarizability:  24.506   0.501  27.568  -0.000  -0.000  15.499

                      1                      2                      3
                     A"                     A'                     A"
 Frequencies --     67.1224               393.8862               502.6572
 Red. masses --      1.2203                 6.9240                 5.9895
 Frc consts  --      0.0032                 0.6329                 0.8916
 IR Inten    --     80.9972                 7.9521                 8.3617

                      4                      5                      6
                     A'                     A'                     A'
 Frequencies --    710.2765               837.4872               966.6171
 Red. masses --     13.0497                12.5394                 9.0182
 Frc consts  --      3.8789                 5.1818                 4.9646
 IR Inten    --    218.5056                30.8078                14.6319

                      7                      8                      9
                     A'                     A'                     A'
 Frequencies --   1413.7824              1567.5596              3626.6777
 Red. masses --      1.2829                 7.6289                 1.0641
 Frc consts  --      1.5108                11.0449                 8.2463
 IR Inten    --     77.1075               148.3901                41.4466

 - Thermochemistry -
 -------------------
 Temperature   298.150 Kelvin.  Pressure   1.00000 Atm.
 Atom     1 has atomic number  1 and mass   1.00783

 Molecular mass:    62.99564 amu.
 Principal axes and moments of inertia in atomic units:
                           1         2         3
     Eigenvalues --    84.46900 222.63999 307.10899
           X            0.79645  -0.60470   0.00000
           Y            0.60470   0.79645   0.00000
           Z            0.00000   0.00000   1.00000
 This molecule is an asymmetric top.
 Rotational symmetry number  1.
 Rotational temperatures (Kelvin)      1.02539     0.38903     0.28203
 Rotational constants (GHZ):          21.36572     8.10610     5.87655
 Zero-point vibrational energy      60328.1 (Joules/Mol)
                                   14.41876 (Kcal/Mol)
 Warning -- explicit consideration of   3 degrees of freedom as
           vibrations may cause significant error
 Vibrational temperatures:     96.57   566.71   723.21  1021.93  1204.96
          (Kelvin)           1390.75  2034.12  2255.37  5217.98

 Zero-point correction=                           0.022978 (Hartree/Particle)
 Thermal correction to Energy=                    0.027377
 Thermal correction to Enthalpy=                  0.028321
 Thermal correction to Gibbs Free Energy=        -0.004032
 Sum of electronic and zero-point Energies=           -280.432168
 Sum of electronic and thermal Energies=              -280.427769
 Sum of electronic and thermal Enthalpies=            -280.426825
 Sum of electronic and thermal Free Energies=         -280.459178

                     E (Thermal)             CV                S
                      KCal/Mol        Cal/Mol-Kelvin    Cal/Mol-Kelvin
 Total                   17.179             12.635             68.092
 Electronic               0.000              0.000              0.000
 Translational            0.889              2.981             38.341
 Rotational               0.889              2.981             23.272
 Vibrational             15.402              6.673              6.479
 Vibration     1          0.598              1.970              4.236
 Vibration     2          0.761              1.483              0.985
 Vibration     3          0.858              1.244              0.652

                       ! Non-Optimized Parameters !

 1\1\GINC-N2228\Freq\RMP2-FC\Aug-CC-pVTZ\H1N1O3\CGAVINH\06-Mar-2022\1\\
 #p freq mp2/aug-cc-pvtz density=current\\title\\0,1\H\O,1,r1\O,2,r2,1,
 a1\N,3,r3,2,a2,1,d1,0\O,4,r4,3,a3,2,d2,0\\r1=0.97456561\r2=1.42673666\
 r3=1.38110764\r4=1.19478846\a1=100.6355057\a2=113.13777052\a3=114.3339
 2022\d1=0.\d2=0.\\Version=ES64L-G16RevB.01\State=1-A'\HF=-279.5069823\
 MP2=-280.4551461\RMSD=4.272e-09\RMSF=3.359e-03\ZeroPoint=0.0229777\The
 rmal=0.0273768\Dipole=-0.1106216,0.,-0.4125106\DipoleDeriv=0.3127593,0
 .,0.0394028,0.,0.2997555,0.,-0.0190872,0.,0.197406,-0.5273588,0.,0.281

 Normal termination of Gaussian 16 at Sun Mar  6 18:54:57 2022.
