 Gaussian 16, Revision B.01,
 Gaussian 16:  ES64L-G16RevB.01 20-Dec-2017

 ---------------------------------------
 #p freq mp2/aug-cc-pvtz density=current
 ---------------------------------------

 -----
 title
 -----
 Symbolic Z-matrix:
 Charge =  0 Multiplicity = 1

                         Standard orientation:
 ---------------------------------------------------------------------
 Center     Atomic      Atomic             Coordinates (Angstroms)
 Number     Number       Type             X           Y           Z
 ---------------------------------------------------------------------
      1          1           0        1.547624    1.682589    0.000000
      2          8           0        1.453989    0.718148    0.000000
      3          8           0       -0.000000    0.666113    0.000000
      4          7           0       -0.259529   -0.769399   -0.000000
      5          8           0       -1.420354   -0.921360   -0.000000
 ---------------------------------------------------------------------

 SCF Done:  E(RHF) =  -279.501627458     A.U. after   14 cycles
 E2 =    -0.9449699894D+00 EUMP2 =    -0.28044659744746D+03
 E2 =    -0.9449699894D+00 EUMP2 =    -0.28044659744746D+03

 The electronic state is 1-A'.
 Alpha  occ. eigenvalues --  -20.69031 -20.68381 -20.65909 -15.81330  -1.62519
 Alpha  occ. eigenvalues --   -1.49472  -1.25328  -0.94843  -0.77202  -0.75966
 Alpha  occ. eigenvalues --   -0.71206  -0.67901  -0.61991  -0.58821  -0.48457
 Alpha  occ. eigenvalues --   -0.47411
 Alpha virt. eigenvalues --    0.02974   0.07109   0.08621   0.10169   0.13388
 Alpha virt. eigenvalues --    0.13388   0.14415   0.15443   0.17840   0.19411
 Alpha virt. eigenvalues --    0.19986   0.20661   0.22079   0.23678   0.23757

 Mulliken charges:
               1
     1  H    0.250175
     2  O   -0.204574
     3  O   -0.145177
     4  N    0.293325
     5  O   -0.193748
 Sum of Mulliken charges =  -0.00000

 Dipole moment (field-independent basis, Debye):
    X=              0.5115    Y=              1.3424    Z=              0.0000  Tot=              1.4365
 Quadrupole moment (field-independent basis, Debye-Ang):
   XX=            -22.5126   YY=            -18.6072   ZZ=            -22.0035
   XY=              3.2223   XZ=             -0.0000   YZ=             -0.0000

  Exact polarizability:  33.967   9.344  30.047   0.000   0.000  17.903
 Approx polarizability:  29.045   4.927  23.385   0.000   0.000  15.510

 ******    1 imaginary frequencies (negative Signs) ******

                      1                      2                      3
                     A"                     A"                     A'
 Frequencies --   -264.9434               229.5731               341.6224
 Red. masses --      1.1342                11.0541                 8.6564
 Frc consts  --      0.0469                 0.3433                 0.5952
 IR Inten    --    125.0285                 0.4762                 3.2031

                      4                      5                      6
                     A'                     A'                     A'
 Frequencies --    462.7963               783.4819               968.5350
 Red. masses --     12.1438                12.9485                15.4851
 Frc consts  --      1.5324                 4.6831                 8.5584
 IR Inten    --    200.2147               164.3268                20.4666

                      7                      8                      9
                     A'                     A'                     A'
 Frequencies --   1371.4274              1677.6731              3778.4587
 Red. masses --      1.1331                13.2685                 1.0675
 Frc consts  --      1.2557                22.0032                 8.9797
 IR Inten    --    150.4347               136.5299                81.4426

 - Thermochemistry -
 -------------------
 Temperature   298.150 Kelvin.  Pressure   1.00000 Atm.
 Atom     1 has atomic number  1 and mass   1.00783

 Molecular mass:    62.99564 amu.
 Principal axes and moments of inertia in atomic units:
                           1         2         3
     Eigenvalues --    33.06834 357.69537 390.76371
           X            0.81339  -0.58172   0.00000
           Y            0.58172   0.81339   0.00000
           Z            0.00000  -0.00000   1.00000
 This molecule is an asymmetric top.
 Rotational symmetry number  1.
 Rotational temperatures (Kelvin)      2.61924     0.24214     0.22165
 Rotational constants (GHZ):          54.57611     5.04547     4.61850
    1 imaginary frequencies ignored.
 Zero-point vibrational energy      57501.9 (Joules/Mol)
                                   13.74329 (Kcal/Mol)
 Warning -- explicit consideration of   3 degrees of freedom as
           vibrations may cause significant error
 Vibrational temperatures:    330.30   491.52   665.86  1127.26  1393.51
          (Kelvin)           1973.18  2413.80  5436.36

 Zero-point correction=                           0.021901 (Hartree/Particle)
 Thermal correction to Energy=                    0.026009
 Thermal correction to Enthalpy=                  0.026953
 Thermal correction to Gibbs Free Energy=        -0.004210
 Sum of electronic and zero-point Energies=           -280.424696
 Sum of electronic and thermal Energies=              -280.420588
 Sum of electronic and thermal Enthalpies=            -280.419644
 Sum of electronic and thermal Free Energies=         -280.450808

                     E (Thermal)             CV                S
                      KCal/Mol        Cal/Mol-Kelvin    Cal/Mol-Kelvin
 Total                   16.321             11.930             65.590
 Electronic               0.000              0.000              0.000
 Translational            0.889              2.981             38.341
 Rotational               0.889              2.981             23.051
 Vibrational             14.543              5.968              4.198
 Vibration     1          0.652              1.796              1.882
 Vibration     2          0.721              1.592              1.205
 Vibration     3          0.820              1.333              0.758

                       ! Non-Optimized Parameters !

 1\1\GINC-N2125\Freq\RMP2-FC\Aug-CC-pVTZ\H1N1O3\CGAVINH\21-Feb-2022\1\\
 #p freq mp2/aug-cc-pvtz density=current\\title\\0,1\H\O,1,r1\O,2,r2,1,
 a1\N,3,r3,2,a2,1,d1,0\O,4,r4,3,a3,2,d2,0\\r1=0.96897556\r2=1.45491931\
 r3=1.45878406\r4=1.17072885\a1=97.59494903\a2=102.29752444\a3=107.7059
 8012\d1=180.\d2=180.\\Version=ES64L-G16RevB.01\State=1-A'\HF=-279.5016
 275\MP2=-280.4465974\RMSD=3.734e-09\RMSF=2.579e-03\ZeroPoint=0.0219013
 \Thermal=0.0260091\Dipole=-0.1492764,0.,-0.5450987\DipoleDeriv=0.26555
 98,0.,0.0478875,0.,0.3552828,0.,0.0809752,0.,0.2734626,-0.3313785,0.,-

 Normal termination of Gaussian 16 at Mon Feb 21 20:59:27 2022.
