 Gaussian 16, Revision B.01,
 Gaussian 16:  ES64L-G16RevB.01 20-Dec-2017

 ---------------------------------------
 #p freq mp2/aug-cc-pvtz density=current
 ---------------------------------------

 -----
 title
 -----
 Symbolic Z-matrix:
 Charge =  0 Multiplicity = 1

                         Standard orientation:
 ---------------------------------------------------------------------
 Center     Atomic      Atomic             Coordinates (Angstroms)
 Number     Number       Type             X           Y           Z
 ---------------------------------------------------------------------
      1          1           0       -0.540299   -1.138484    0.026055
      2          8           0       -1.277008   -0.484510    0.002710
      3          8           0       -0.542887    0.738802   -0.009611
      4          7           0        0.825183    0.550993    0.014258
      5          8           0        1.165396   -0.594101   -0.008832
 ---------------------------------------------------------------------

 SCF Done:  E(RHF) =  -279.506350584     A.U. after   14 cycles
 E2 =    -0.9487758559D+00 EUMP2 =    -0.28045512644042D+03
 E2 =    -0.9487758559D+00 EUMP2 =    -0.28045512644042D+03

 The electronic state is 1-A.
 Alpha  occ. eigenvalues --  -20.71974 -20.68726 -20.66832 -15.82600  -1.64426
 Alpha  occ. eigenvalues --   -1.50516  -1.29375  -0.96036  -0.83461  -0.75893
 Alpha  occ. eigenvalues --   -0.73993  -0.63745  -0.61907  -0.61806  -0.50478
 Alpha  occ. eigenvalues --   -0.49737
 Alpha virt. eigenvalues --    0.03506   0.06018   0.09512   0.10038   0.11933
 Alpha virt. eigenvalues --    0.12290   0.14940   0.15204   0.17741   0.18047
 Alpha virt. eigenvalues --    0.18969   0.21110   0.21676   0.24253   0.24633

 Mulliken charges:
               1
     1  H    0.278062
     2  O   -0.274127
     3  O    0.037648
     4  N    0.154239
     5  O   -0.195823
 Sum of Mulliken charges =  -0.00000

 Dipole moment (field-independent basis, Debye):
    X=              0.6061    Y=             -0.9129    Z=              0.0373  Tot=              1.0965
 Quadrupole moment (field-independent basis, Debye-Ang):
   XX=            -25.1098   YY=            -21.2122   ZZ=            -21.9319
   XY=              0.3829   XZ=             -0.0244   YZ=             -0.0962

  Exact polarizability:  34.497  -0.729  26.273   0.032  -0.007  17.623
 Approx polarizability:  26.140  -1.635  26.073   0.016   0.006  15.519

                      1                      2                      3
                      A                      A                      A
 Frequencies --    352.2526               396.2629               522.5069
 Red. masses --      1.5480                 7.1106                 2.9361
 Frc consts  --      0.1132                 0.6578                 0.4723
 IR Inten    --     63.2120                 7.7914                25.4013

                      4                      5                      6
                      A                      A                      A
 Frequencies --    711.4906               837.0761               970.9920
 Red. masses --     13.3175                12.3667                 9.7783
 Frc consts  --      3.9720                 5.1054                 5.4318
 IR Inten    --    217.2644                30.6681                12.7669

                      7                      8                      9
                      A                      A                      A
 Frequencies --   1434.3635              1570.2523              3487.8563
 Red. masses --      1.3056                 6.3928                 1.0638
 Frc consts  --      1.5826                 9.2870                 7.6245
 IR Inten    --     79.8980               150.1036                42.5852

 - Thermochemistry -
 -------------------
 Temperature   298.150 Kelvin.  Pressure   1.00000 Atm.
 Atom     1 has atomic number  1 and mass   1.00783

 Molecular mass:    62.99564 amu.
 Principal axes and moments of inertia in atomic units:
                           1         2         3
     Eigenvalues --    84.50743 222.69890 307.16118
           X            0.99987   0.01593  -0.00024
           Y           -0.01593   0.99987  -0.00127
           Z            0.00022   0.00128   1.00000
 This molecule is an asymmetric top.
 Rotational symmetry number  1.
 Rotational temperatures (Kelvin)      1.02493     0.38893     0.28198
 Rotational constants (GHZ):          21.35601     8.10395     5.87555
 Zero-point vibrational energy      61506.3 (Joules/Mol)
                                   14.70036 (Kcal/Mol)
 Warning -- explicit consideration of   3 degrees of freedom as
           vibrations may cause significant error
 Vibrational temperatures:    506.81   570.13   751.77  1023.68  1204.37
          (Kelvin)           1397.04  2063.73  2259.24  5018.25

 Zero-point correction=                           0.023427 (Hartree/Particle)
 Thermal correction to Energy=                    0.027367
 Thermal correction to Enthalpy=                  0.028311
 Thermal correction to Gibbs Free Energy=        -0.002550
 Sum of electronic and zero-point Energies=           -280.431700
 Sum of electronic and thermal Energies=              -280.427760
 Sum of electronic and thermal Enthalpies=            -280.426816
 Sum of electronic and thermal Free Energies=         -280.457676

                     E (Thermal)             CV                S
                      KCal/Mol        Cal/Mol-Kelvin    Cal/Mol-Kelvin
 Total                   17.173             12.172             64.952
 Electronic               0.000              0.000              0.000
 Translational            0.889              2.981             38.341
 Rotational               0.889              2.981             23.273
 Vibrational             15.395              6.211              3.338
 Vibration     1          0.729              1.571              1.156
 Vibration     2          0.763              1.478              0.976
 Vibration     3          0.877              1.200              0.604

                       ! Non-Optimized Parameters !

 1\1\GINC-N2218\Freq\RMP2-FC\Aug-CC-pVTZ\H1N1O3\CGAVINH\06-Mar-2022\1\\
 #p freq mp2/aug-cc-pvtz density=current\\title\\0,1\H\O,1,r1\O,2,r2,1,
 a1\N,3,r3,2,a2,1,d1,0\O,4,r4,3,a3,2,d2,0\\r1=0.98537664\r2=1.42673666\
 r3=1.38110764\r4=1.19478846\a1=100.6355057\a2=113.13777052\a3=114.3339
 2022\d1=0.\d2=2.6248625\\Version=ES64L-G16RevB.01\State=1-A\HF=-279.50
 63506\MP2=-280.4551264\RMSD=9.814e-09\RMSF=1.379e-03\ZeroPoint=0.02342
 65\Thermal=0.0273667\Dipole=-0.1103083,-0.0043046,-0.4170156\DipoleDer
 iv=0.3166969,0.0019943,0.0380917,0.0025392,0.2981352,-0.0002572,-0.024

 Normal termination of Gaussian 16 at Sun Mar  6 20:01:34 2022.
