 Gaussian 16, Revision B.01,
 Gaussian 16:  ES64L-G16RevB.01 20-Dec-2017

 ---------------------------------------
 #p freq mp2/aug-cc-pvtz density=current
 ---------------------------------------

 -----
 title
 -----
 Symbolic Z-matrix:
 Charge =  0 Multiplicity = 1

                         Standard orientation:
 ---------------------------------------------------------------------
 Center     Atomic      Atomic             Coordinates (Angstroms)
 Number     Number       Type             X           Y           Z
 ---------------------------------------------------------------------
      1          1           0        1.574429    1.675982    0.000000
      2          8           0        1.472206    0.712414   -0.000000
      3          8           0       -0.000000    0.672856    0.000000
      4          7           0       -0.272307   -0.760288   -0.000000
      5          8           0       -1.430740   -0.929516    0.000000
 ---------------------------------------------------------------------

 SCF Done:  E(RHF) =  -279.500056154     A.U. after   14 cycles
 E2 =    -0.9465162359D+00 EUMP2 =    -0.28044657238997D+03
 E2 =    -0.9465162359D+00 EUMP2 =    -0.28044657238997D+03

 The electronic state is 1-A'.
 Alpha  occ. eigenvalues --  -20.69188 -20.68460 -20.66151 -15.81318  -1.62355
 Alpha  occ. eigenvalues --   -1.48880  -1.25756  -0.94783  -0.77096  -0.75778
 Alpha  occ. eigenvalues --   -0.71026  -0.67938  -0.61876  -0.58691  -0.48836
 Alpha  occ. eigenvalues --   -0.47289
 Alpha virt. eigenvalues --    0.02959   0.07165   0.08547   0.10163   0.13300
 Alpha virt. eigenvalues --    0.13397   0.14399   0.15445   0.17829   0.19434
 Alpha virt. eigenvalues --    0.19988   0.20614   0.21714   0.22950   0.23723

 Mulliken charges:
               1
     1  H    0.251276
     2  O   -0.203737
     3  O   -0.148028
     4  N    0.293166
     5  O   -0.192677
 Sum of Mulliken charges =   0.00000

 Dipole moment (field-independent basis, Debye):
    X=              0.5115    Y=              1.3450    Z=              0.0000  Tot=              1.4390
 Quadrupole moment (field-independent basis, Debye-Ang):
   XX=            -22.3711   YY=            -18.6813   ZZ=            -22.0350
   XY=              3.3113   XZ=              0.0000   YZ=             -0.0000

  Exact polarizability:  34.436   9.499  30.181  -0.000   0.000  17.987
 Approx polarizability:  29.537   5.091  23.482  -0.000   0.000  15.551

 ******    1 imaginary frequencies (negative Signs) ******

                      1                      2                      3
                     A"                     A"                     A'
 Frequencies --   -275.9709               234.6201               343.4866
 Red. masses --      1.1415                10.2918                 8.7319
 Frc consts  --      0.0512                 0.3338                 0.6070
 IR Inten    --    124.1047                 0.9241                 2.5619

                      4                      5                      6
                     A'                     A'                     A'
 Frequencies --    446.4571               772.6966               933.1987
 Red. masses --     12.1497                13.2049                14.8063
 Frc consts  --      1.4268                 4.6452                 7.5971
 IR Inten    --    198.8602               162.1414                34.2125

                      7                      8                      9
                     A'                     A'                     A'
 Frequencies --   1351.2690              1676.4391              3780.3764
 Red. masses --      1.1324                13.3979                 1.0677
 Frc consts  --      1.2183                22.1852                 8.9898
 IR Inten    --    151.2700               141.5491                81.6393

 - Thermochemistry -
 -------------------
 Temperature   298.150 Kelvin.  Pressure   1.00000 Atm.
 Atom     1 has atomic number  1 and mass   1.00783

 Molecular mass:    62.99564 amu.
 Principal axes and moments of inertia in atomic units:
                           1         2         3
     Eigenvalues --    33.10163 363.16854 396.27017
           X            0.81662  -0.57717   0.00000
           Y            0.57717   0.81662   0.00000
           Z           -0.00000  -0.00000   1.00000
 This molecule is an asymmetric top.
 Rotational symmetry number  1.
 Rotational temperatures (Kelvin)      2.61661     0.23850     0.21857
 Rotational constants (GHZ):          54.52123     4.96943     4.55432
    1 imaginary frequencies ignored.
 Zero-point vibrational energy      57053.2 (Joules/Mol)
                                   13.63603 (Kcal/Mol)
 Warning -- explicit consideration of   3 degrees of freedom as
           vibrations may cause significant error
 Vibrational temperatures:    337.57   494.20   642.35  1111.74  1342.66
          (Kelvin)           1944.17  2412.02  5439.12

 Zero-point correction=                           0.021730 (Hartree/Particle)
 Thermal correction to Energy=                    0.025852
 Thermal correction to Enthalpy=                  0.026797
 Thermal correction to Gibbs Free Energy=        -0.004395
 Sum of electronic and zero-point Energies=           -280.424842
 Sum of electronic and thermal Energies=              -280.420720
 Sum of electronic and thermal Enthalpies=            -280.419776
 Sum of electronic and thermal Free Energies=         -280.450967

                     E (Thermal)             CV                S
                      KCal/Mol        Cal/Mol-Kelvin    Cal/Mol-Kelvin
 Total                   16.223             12.024             65.648
 Electronic               0.000              0.000              0.000
 Translational            0.889              2.981             38.341
 Rotational               0.889              2.981             23.081
 Vibrational             14.445              6.063              4.226
 Vibration     1          0.654              1.788              1.843
 Vibration     2          0.722              1.589              1.196
 Vibration     3          0.806              1.369              0.807

                       ! Non-Optimized Parameters !

 1\1\GINC-N2127\Freq\RMP2-FC\Aug-CC-pVTZ\H1N1O3\CGAVINH\21-Feb-2022\1\\
 #p freq mp2/aug-cc-pvtz density=current\\title\\0,1\H\O,1,r1\O,2,r2,1,
 a1\N,3,r3,2,a2,1,d1,0\O,4,r4,3,a3,2,d2,0\\r1=0.96897556\r2=1.47273697\
 r3=1.45878406\r4=1.17072885\a1=97.59494903\a2=102.29752444\a3=109.0695
 5123\d1=180.\d2=180.\\Version=ES64L-G16RevB.01\State=1-A'\HF=-279.5000
 562\MP2=-280.4465724\RMSD=3.970e-09\RMSF=3.068e-03\ZeroPoint=0.0217304
 \Thermal=0.0258525\Dipole=-0.1442917,0.,-0.547445\DipoleDeriv=0.266008
 5,0.,0.0472581,0.,0.3547904,0.,0.0846252,0.,0.2732281,-0.3278073,0.,-0

 Normal termination of Gaussian 16 at Mon Feb 21 20:11:37 2022.
