 Gaussian 16, Revision B.01,
 Gaussian 16:  ES64L-G16RevB.01 20-Dec-2017

 ---------------------------------------
 #p freq mp2/aug-cc-pvtz density=current
 ---------------------------------------

 -----
 title
 -----
 Symbolic Z-matrix:
 Charge =  0 Multiplicity = 1

                         Standard orientation:
 ---------------------------------------------------------------------
 Center     Atomic      Atomic             Coordinates (Angstroms)
 Number     Number       Type             X           Y           Z
 ---------------------------------------------------------------------
      1          1           0        1.105795   -0.614051    0.000000
      2          8           0        1.315897    0.366155    0.000000
      3          8           0       -0.000000    0.917511    0.000000
      4          7           0       -0.991328   -0.044117    0.000000
      5          8           0       -0.586709   -1.168307    0.000000
 ---------------------------------------------------------------------

 SCF Done:  E(RHF) =  -279.505181065     A.U. after   14 cycles
 E2 =    -0.9498413983D+00 EUMP2 =    -0.28045502246342D+03
 E2 =    -0.9498413983D+00 EUMP2 =    -0.28045502246342D+03

 The electronic state is 1-A'.
 Alpha  occ. eigenvalues --  -20.71955 -20.68746 -20.66880 -15.82603  -1.64401
 Alpha  occ. eigenvalues --   -1.50375  -1.29071  -0.95934  -0.83395  -0.75872
 Alpha  occ. eigenvalues --   -0.73970  -0.63348  -0.61824  -0.61801  -0.50489
 Alpha  occ. eigenvalues --   -0.49679
 Alpha virt. eigenvalues --    0.03493   0.06017   0.09522   0.10033   0.11985
 Alpha virt. eigenvalues --    0.12264   0.14901   0.15190   0.17781   0.18041
 Alpha virt. eigenvalues --    0.18983   0.21079   0.21653   0.24311   0.24640

 Mulliken charges:
               1
     1  H    0.287056
     2  O   -0.284823
     3  O    0.037976
     4  N    0.155080
     5  O   -0.195289
 Sum of Mulliken charges =  -0.00000

 Dipole moment (field-independent basis, Debye):
    X=              0.0461    Y=             -1.1097    Z=              0.0000  Tot=              1.1107
 Quadrupole moment (field-independent basis, Debye-Ang):
   XX=            -23.4036   YY=            -22.9169   ZZ=            -21.9546
   XY=             -1.9898   XZ=              0.0000   YZ=              0.0000

  Exact polarizability:  31.029   4.140  29.975   0.000   0.000  17.660
 Approx polarizability:  24.652   0.548  27.809  -0.000  -0.000  15.541

                      1                      2                      3
                     A'                     A"                     A"
 Frequencies --    400.9312               457.7766               622.5442
 Red. masses --      7.1924                 6.2501                 1.2118
 Frc consts  --      0.6812                 0.7717                 0.2767
 IR Inten    --      7.6441                11.7235                74.9634

                      4                      5                      6
                     A'                     A'                     A'
 Frequencies --    712.6335               835.7136               975.6806
 Red. masses --     13.6774                12.1733                10.7245
 Frc consts  --      4.0925                 5.0093                 6.0151
 IR Inten    --    215.2229                30.4504                10.5727

                      7                      8                      9
                     A'                     A'                     A'
 Frequencies --   1457.2086              1575.7248              3275.7154
 Red. masses --      1.3758                 4.8383                 1.0630
 Frc consts  --      1.7212                 7.0779                 6.7206
 IR Inten    --     82.9739               154.0830                44.8803

 - Thermochemistry -
 -------------------
 Temperature   298.150 Kelvin.  Pressure   1.00000 Atm.
 Atom     1 has atomic number  1 and mass   1.00783

 Molecular mass:    62.99564 amu.
 Principal axes and moments of inertia in atomic units:
                           1         2         3
     Eigenvalues --    84.62181 222.55963 307.18144
           X            0.79609  -0.60517   0.00000
           Y            0.60517   0.79609   0.00000
           Z            0.00000   0.00000   1.00000
 This molecule is an asymmetric top.
 Rotational symmetry number  1.
 Rotational temperatures (Kelvin)      1.02354     0.38917     0.28196
 Rotational constants (GHZ):          21.32714     8.10902     5.87516
 Zero-point vibrational energy      61691.0 (Joules/Mol)
                                   14.74450 (Kcal/Mol)
 Warning -- explicit consideration of   2 degrees of freedom as
           vibrations may cause significant error
 Vibrational temperatures:    576.85   658.64   895.70  1025.32  1202.41
          (Kelvin)           1403.79  2096.60  2267.12  4713.02

 Zero-point correction=                           0.023497 (Hartree/Particle)
 Thermal correction to Energy=                    0.027269
 Thermal correction to Enthalpy=                  0.028214
 Thermal correction to Gibbs Free Energy=        -0.002364
 Sum of electronic and zero-point Energies=           -280.431526
 Sum of electronic and thermal Energies=              -280.427753
 Sum of electronic and thermal Enthalpies=            -280.426809
 Sum of electronic and thermal Free Energies=         -280.457387

                     E (Thermal)             CV                S
                      KCal/Mol        Cal/Mol-Kelvin    Cal/Mol-Kelvin
 Total                   17.112             11.706             64.356
 Electronic               0.000              0.000              0.000
 Translational            0.889              2.981             38.341
 Rotational               0.889              2.981             23.274
 Vibrational             15.334              5.744              2.742
 Vibration     1          0.767              1.468              0.959
 Vibration     2          0.816              1.344              0.773

                       ! Non-Optimized Parameters !

 1\1\GINC-N2095\Freq\RMP2-FC\Aug-CC-pVTZ\H1N1O3\CGAVINH\06-Mar-2022\1\\
 #p freq mp2/aug-cc-pvtz density=current\\title\\0,1\H\O,1,r1\O,2,r2,1,
 a1\N,3,r3,2,a2,1,d1,0\O,4,r4,3,a3,2,d2,0\\r1=1.00247039\r2=1.42673666\
 r3=1.38110764\r4=1.19478846\a1=100.6355057\a2=113.13777052\a3=114.3339
 2022\d1=0.\d2=0.\\Version=ES64L-G16RevB.01\State=1-A'\HF=-279.5051811\
 MP2=-280.4550225\RMSD=4.663e-09\RMSF=4.744e-03\ZeroPoint=0.0234969\The
 rmal=0.0272694\Dipole=-0.109249,0.,-0.4230889\DipoleDeriv=0.3235032,0.
 ,0.0353644,0.,0.2954405,0.,-0.0330081,0.,0.2037588,-0.5296992,0.,0.281

 Normal termination of Gaussian 16 at Sun Mar  6 18:51:05 2022.
