 Gaussian 16, Revision B.01,
 Gaussian 16:  ES64L-G16RevB.01 20-Dec-2017

 ---------------------------------------
 #p freq mp2/aug-cc-pvtz density=current
 ---------------------------------------

 -----
 title
 -----
 Symbolic Z-matrix:
 Charge =  0 Multiplicity = 1

                         Standard orientation:
 ---------------------------------------------------------------------
 Center     Atomic      Atomic             Coordinates (Angstroms)
 Number     Number       Type             X           Y           Z
 ---------------------------------------------------------------------
      1          1           0        1.546551    1.691379   -0.000000
      2          8           0        1.453933    0.726840   -0.000000
      3          8           0       -0.000000    0.673272   -0.000000
      4          7           0       -0.258015   -0.762513    0.000000
      5          8           0       -1.421488   -0.944335    0.000000
 ---------------------------------------------------------------------

 SCF Done:  E(RHF) =  -279.500446238     A.U. after   14 cycles
 E2 =    -0.9462263607D+00 EUMP2 =    -0.28044667259899D+03
 E2 =    -0.9462263607D+00 EUMP2 =    -0.28044667259899D+03

 The electronic state is 1-A'.
 Alpha  occ. eigenvalues --  -20.69248 -20.68402 -20.66085 -15.81383  -1.61857
 Alpha  occ. eigenvalues --   -1.49559  -1.25510  -0.94901  -0.77203  -0.75738
 Alpha  occ. eigenvalues --   -0.71048  -0.67852  -0.61902  -0.58986  -0.48578
 Alpha  occ. eigenvalues --   -0.47383
 Alpha virt. eigenvalues --    0.02944   0.06956   0.08605   0.10172   0.13386
 Alpha virt. eigenvalues --    0.13409   0.14393   0.15436   0.17814   0.19425
 Alpha virt. eigenvalues --    0.19956   0.20635   0.22058   0.23486   0.23733

 Mulliken charges:
               1
     1  H    0.250495
     2  O   -0.201040
     3  O   -0.145660
     4  N    0.290975
     5  O   -0.194770
 Sum of Mulliken charges =  -0.00000

 Dipole moment (field-independent basis, Debye):
    X=              0.5337    Y=              1.3909    Z=             -0.0000  Tot=              1.4898
 Quadrupole moment (field-independent basis, Debye-Ang):
   XX=            -22.5044   YY=            -18.6157   ZZ=            -22.0218
   XY=              3.2332   XZ=             -0.0000   YZ=             -0.0000

  Exact polarizability:  34.073   9.546  30.345   0.000   0.000  17.941
 Approx polarizability:  29.160   5.161  23.580  -0.000  -0.000  15.552

 ******    1 imaginary frequencies (negative Signs) ******

                      1                      2                      3
                     A"                     A"                     A'
 Frequencies --   -270.3819               250.2551               346.3004
 Red. masses --      1.1331                11.0482                 8.5336
 Frc consts  --      0.0488                 0.4077                 0.6030
 IR Inten    --    125.0449                 0.4758                 6.6175

                      4                      5                      6
                     A'                     A'                     A'
 Frequencies --    448.0700               785.5089               966.4548
 Red. masses --     12.4160                13.0676                15.3939
 Frc consts  --      1.4687                 4.7506                 8.4716
 IR Inten    --    198.1912               170.6661                23.4773

                      7                      8                      9
                     A'                     A'                     A'
 Frequencies --   1370.4663              1634.0414              3778.7651
 Red. masses --      1.1381                12.5185                 1.0675
 Frc consts  --      1.2594                19.6938                 8.9813
 IR Inten    --    157.2785               123.0062                83.0609

 - Thermochemistry -
 -------------------
 Temperature   298.150 Kelvin.  Pressure   1.00000 Atm.
 Atom     1 has atomic number  1 and mass   1.00783

 Molecular mass:    62.99564 amu.
 Principal axes and moments of inertia in atomic units:
                           1         2         3
     Eigenvalues --    32.86815 361.31051 394.17866
           X            0.80926  -0.58745   0.00000
           Y            0.58745   0.80926   0.00000
           Z            0.00000  -0.00000   1.00000
 This molecule is an asymmetric top.
 Rotational symmetry number  1.
 Rotational temperatures (Kelvin)      2.63519     0.23972     0.21973
 Rotational constants (GHZ):          54.90851     4.99499     4.57849
    1 imaginary frequencies ignored.
 Zero-point vibrational energy      57300.3 (Joules/Mol)
                                   13.69510 (Kcal/Mol)
 Warning -- explicit consideration of   3 degrees of freedom as
           vibrations may cause significant error
 Vibrational temperatures:    360.06   498.25   644.67  1130.17  1390.51
          (Kelvin)           1971.80  2351.02  5436.80

 Zero-point correction=                           0.021825 (Hartree/Particle)
 Thermal correction to Energy=                    0.025910
 Thermal correction to Enthalpy=                  0.026854
 Thermal correction to Gibbs Free Energy=        -0.004253
 Sum of electronic and zero-point Energies=           -280.424848
 Sum of electronic and thermal Energies=              -280.420763
 Sum of electronic and thermal Enthalpies=            -280.419819
 Sum of electronic and thermal Free Energies=         -280.450926

                     E (Thermal)             CV                S
                      KCal/Mol        Cal/Mol-Kelvin    Cal/Mol-Kelvin
 Total                   16.259             11.926             65.471
 Electronic               0.000              0.000              0.000
 Translational            0.889              2.981             38.341
 Rotational               0.889              2.981             23.064
 Vibrational             14.481              5.964              4.067
 Vibration     1          0.663              1.762              1.729
 Vibration     2          0.724              1.583              1.183
 Vibration     3          0.807              1.365              0.802

                       ! Non-Optimized Parameters !

 1\1\GINC-N2109\Freq\RMP2-FC\Aug-CC-pVTZ\H1N1O3\CGAVINH\21-Feb-2022\1\\
 #p freq mp2/aug-cc-pvtz density=current\\title\\0,1\H\O,1,r1\O,2,r2,1,
 a1\N,3,r3,2,a2,1,d1,0\O,4,r4,3,a3,2,d2,0\\r1=0.96897556\r2=1.45491931\
 r3=1.45878406\r4=1.17759432\a1=97.59494903\a2=102.29752444\a3=109.0695
 5123\d1=180.\d2=180.\\Version=ES64L-G16RevB.01\State=1-A'\HF=-279.5004
 462\MP2=-280.4466726\RMSD=3.978e-09\RMSF=3.446e-03\ZeroPoint=0.0218245
 \Thermal=0.0259099\Dipole=-0.1567239,0.,-0.5647724\DipoleDeriv=0.26639
 05,0.,0.0484001,0.,0.3557791,0.,0.0825907,0.,0.2763821,-0.3293908,0.,-

 Normal termination of Gaussian 16 at Mon Feb 21 20:28:18 2022.
