 Gaussian 16, Revision B.01,
 Gaussian 16:  ES64L-G16RevB.01 20-Dec-2017

 ---------------------------------------
 #p freq mp2/aug-cc-pvtz density=current
 ---------------------------------------

 -----
 title
 -----
 Symbolic Z-matrix:
 Charge =  0 Multiplicity = 1

                         Standard orientation:
 ---------------------------------------------------------------------
 Center     Atomic      Atomic             Coordinates (Angstroms)
 Number     Number       Type             X           Y           Z
 ---------------------------------------------------------------------
      1          1           0        1.113533   -0.592245    0.000000
      2          8           0        1.317406    0.371810    0.000000
      3          8           0       -0.000000    0.919550    0.000000
      4          7           0       -0.994294   -0.050269   -0.000000
      5          8           0       -0.586590   -1.173344   -0.000000
 ---------------------------------------------------------------------

 SCF Done:  E(RHF) =  -279.505736470     A.U. after   14 cycles
 E2 =    -0.9494779976D+00 EUMP2 =    -0.28045521446734D+03
 E2 =    -0.9494779976D+00 EUMP2 =    -0.28045521446734D+03

 The electronic state is 1-A'.
 Alpha  occ. eigenvalues --  -20.71850 -20.68908 -20.66783 -15.82699  -1.64243
 Alpha  occ. eigenvalues --   -1.50509  -1.29097  -0.96079  -0.83385  -0.75799
 Alpha  occ. eigenvalues --   -0.73822  -0.63715  -0.61911  -0.61894  -0.50456
 Alpha  occ. eigenvalues --   -0.49674
 Alpha virt. eigenvalues --    0.03510   0.05910   0.09509   0.10036   0.11972
 Alpha virt. eigenvalues --    0.12243   0.14952   0.15223   0.17758   0.18021
 Alpha virt. eigenvalues --    0.18983   0.21094   0.21673   0.24236   0.24632

 Mulliken charges:
               1
     1  H    0.277824
     2  O   -0.273135
     3  O    0.031741
     4  N    0.156790
     5  O   -0.193220
 Sum of Mulliken charges =  -0.00000

 Dipole moment (field-independent basis, Debye):
    X=              0.0324    Y=             -1.1304    Z=              0.0000  Tot=              1.1309
 Quadrupole moment (field-independent basis, Debye-Ang):
   XX=            -23.3516   YY=            -22.9588   ZZ=            -21.9461
   XY=             -1.9577   XZ=             -0.0000   YZ=             -0.0000

  Exact polarizability:  30.961   4.198  29.970   0.000   0.000  17.645
 Approx polarizability:  24.626   0.557  27.783   0.000  -0.000  15.528

                      1                      2                      3
                     A"                     A'                     A"
 Frequencies --    350.0786               390.7915               521.7273
 Red. masses --      1.5364                 7.1219                 2.9845
 Frc consts  --      0.1109                 0.6408                 0.4786
 IR Inten    --     63.3482                 8.2320                24.8299

                      4                      5                      6
                     A'                     A'                     A'
 Frequencies --    683.6589               836.1622               968.9974
 Red. masses --     13.2961                12.2718                 9.8811
 Frc consts  --      3.6614                 5.0552                 5.4664
 IR Inten    --    224.5591                29.5806                12.1244

                      7                      8                      9
                     A'                     A'                     A'
 Frequencies --   1434.4495              1566.3803              3488.4352
 Red. masses --      1.3107                 6.2201                 1.0639
 Frc consts  --      1.5890                 8.9917                 7.6277
 IR Inten    --     79.4580               150.1710                41.3818

 - Thermochemistry -
 -------------------
 Temperature   298.150 Kelvin.  Pressure   1.00000 Atm.
 Atom     1 has atomic number  1 and mass   1.00783

 Molecular mass:    62.99564 amu.
 Principal axes and moments of inertia in atomic units:
                           1         2         3
     Eigenvalues --    84.54026 224.27750 308.81776
           X            0.79391  -0.60803   0.00000
           Y            0.60803   0.79391   0.00000
           Z           -0.00000   0.00000   1.00000
 This molecule is an asymmetric top.
 Rotational symmetry number  1.
 Rotational temperatures (Kelvin)      1.02453     0.38619     0.28047
 Rotational constants (GHZ):          21.34771     8.04691     5.84403
 Zero-point vibrational energy      61252.9 (Joules/Mol)
                                   14.63979 (Kcal/Mol)
 Warning -- explicit consideration of   3 degrees of freedom as
           vibrations may cause significant error
 Vibrational temperatures:    503.68   562.26   750.65   983.63  1203.05
          (Kelvin)           1394.17  2063.85  2253.67  5019.08

 Zero-point correction=                           0.023330 (Hartree/Particle)
 Thermal correction to Energy=                    0.027290
 Thermal correction to Enthalpy=                  0.028235
 Thermal correction to Gibbs Free Energy=        -0.002664
 Sum of electronic and zero-point Energies=           -280.431884
 Sum of electronic and thermal Energies=              -280.427924
 Sum of electronic and thermal Enthalpies=            -280.426980
 Sum of electronic and thermal Free Energies=         -280.457879

                     E (Thermal)             CV                S
                      KCal/Mol        Cal/Mol-Kelvin    Cal/Mol-Kelvin
 Total                   17.125             12.248             65.032
 Electronic               0.000              0.000              0.000
 Translational            0.889              2.981             38.341
 Rotational               0.889              2.981             23.286
 Vibrational             15.348              6.286              3.405
 Vibration     1          0.727              1.575              1.166
 Vibration     2          0.758              1.490              0.997
 Vibration     3          0.877              1.202              0.606

                       ! Non-Optimized Parameters !

 1\1\GINC-N2398\Freq\RMP2-FC\Aug-CC-pVTZ\H1N1O3\CGAVINH\06-Mar-2022\1\\
 #p freq mp2/aug-cc-pvtz density=current\\title\\0,1\H\O,1,r1\O,2,r2,1,
 a1\N,3,r3,2,a2,1,d1,0\O,4,r4,3,a3,2,d2,0\\r1=0.98537664\r2=1.42673666\
 r3=1.38894587\r4=1.19478846\a1=100.6355057\a2=113.13777052\a3=114.3339
 2022\d1=0.\d2=0.\\Version=ES64L-G16RevB.01\State=1-A'\HF=-279.5057365\
 MP2=-280.4552145\RMSD=4.610e-09\RMSF=1.032e-03\ZeroPoint=0.02333\Therm
 al=0.0272904\Dipole=-0.1045046,0.,-0.432468\DipoleDeriv=0.3150326,0.,0
 .0384604,0.,0.2979632,0.,-0.0234872,0.,0.1966499,-0.525936,0.,0.280587

 Normal termination of Gaussian 16 at Sun Mar  6 19:05:42 2022.
