 Gaussian 16, Revision B.01,
 Gaussian 16:  ES64L-G16RevB.01 20-Dec-2017

 ---------------------------------------
 #p freq mp2/aug-cc-pvtz density=current
 ---------------------------------------

 -----
 title
 -----
 Symbolic Z-matrix:
 Charge =  0 Multiplicity = 1

                         Standard orientation:
 ---------------------------------------------------------------------
 Center     Atomic      Atomic             Coordinates (Angstroms)
 Number     Number       Type             X           Y           Z
 ---------------------------------------------------------------------
      1          1           0        1.107672   -0.605175    0.000000
      2          8           0        1.315860    0.365777    0.000000
      3          8           0        0.000000    0.917222    0.000000
      4          7           0       -0.991393   -0.044339    0.000000
      5          8           0       -0.586850   -1.168556    0.000000
 ---------------------------------------------------------------------

 SCF Done:  E(RHF) =  -279.505924888     A.U. after   14 cycles
 E2 =    -0.9492709760D+00 EUMP2 =    -0.28045519586399D+03
 E2 =    -0.9492709760D+00 EUMP2 =    -0.28045519586399D+03

 The electronic state is 1-A'.
 Alpha  occ. eigenvalues --  -20.71969 -20.68735 -20.66853 -15.82602  -1.64417
 Alpha  occ. eigenvalues --   -1.50451  -1.29239  -0.95989  -0.83437  -0.75883
 Alpha  occ. eigenvalues --   -0.73985  -0.63564  -0.61852  -0.61822  -0.50479
 Alpha  occ. eigenvalues --   -0.49719
 Alpha virt. eigenvalues --    0.03501   0.06021   0.09516   0.10036   0.11978
 Alpha virt. eigenvalues --    0.12262   0.14919   0.15198   0.17765   0.18037
 Alpha virt. eigenvalues --    0.18980   0.21091   0.21663   0.24279   0.24637

 Mulliken charges:
               1
     1  H    0.282207
     2  O   -0.279128
     3  O    0.037925
     4  N    0.154505
     5  O   -0.195509
 Sum of Mulliken charges =  -0.00000

 Dipole moment (field-independent basis, Debye):
    X=              0.0493    Y=             -1.1010    Z=              0.0000  Tot=              1.1021
 Quadrupole moment (field-independent basis, Debye-Ang):
   XX=            -23.3897   YY=            -22.9310   ZZ=            -21.9429
   XY=             -1.9812   XZ=              0.0000   YZ=              0.0000

  Exact polarizability:  30.969   4.141  29.909   0.000   0.000  17.637
 Approx polarizability:  24.602   0.532  27.726  -0.000  -0.000  15.526

                      1                      2                      3
                     A'                     A"                     A"
 Frequencies --    399.0672               424.2140               558.1700
 Red. masses --      7.1313                 2.6831                 1.6315
 Frc consts  --      0.6691                 0.2845                 0.2995
 IR Inten    --      7.6950                34.7700                52.8070

                      4                      5                      6
                     A'                     A'                     A'
 Frequencies --    712.0414               836.3884               973.3666
 Red. masses --     13.5042                12.2805                10.2241
 Frc consts  --      4.0340                 5.0615                 5.7073
 IR Inten    --    216.3130                30.6685                11.6786

                      7                      8                      9
                     A'                     A'                     A'
 Frequencies --   1445.5872              1572.6685              3391.6010
 Red. masses --      1.3323                 5.6361                 1.0635
 Frc consts  --      1.6403                 8.2130                 7.2074
 IR Inten    --     81.5076               151.8585                43.6831

 - Thermochemistry -
 -------------------
 Temperature   298.150 Kelvin.  Pressure   1.00000 Atm.
 Atom     1 has atomic number  1 and mass   1.00783

 Molecular mass:    62.99564 amu.
 Principal axes and moments of inertia in atomic units:
                           1         2         3
     Eigenvalues --    84.56981 222.58648 307.15629
           X            0.79622  -0.60501   0.00000
           Y            0.60501   0.79622   0.00000
           Z            0.00000   0.00000   1.00000
 This molecule is an asymmetric top.
 Rotational symmetry number  1.
 Rotational temperatures (Kelvin)      1.02417     0.38912     0.28199
 Rotational constants (GHZ):          21.34025     8.10804     5.87564
 Zero-point vibrational energy      61686.1 (Joules/Mol)
                                   14.74332 (Kcal/Mol)
 Warning -- explicit consideration of   3 degrees of freedom as
           vibrations may cause significant error
 Vibrational temperatures:    574.17   610.35   803.08  1024.47  1203.38
          (Kelvin)           1400.46  2079.88  2262.72  4879.76

 Zero-point correction=                           0.023495 (Hartree/Particle)
 Thermal correction to Energy=                    0.027336
 Thermal correction to Enthalpy=                  0.028280
 Thermal correction to Gibbs Free Energy=        -0.002406
 Sum of electronic and zero-point Energies=           -280.431701
 Sum of electronic and thermal Energies=              -280.427860
 Sum of electronic and thermal Enthalpies=            -280.426916
 Sum of electronic and thermal Free Energies=         -280.457602

                     E (Thermal)             CV                S
                      KCal/Mol        Cal/Mol-Kelvin    Cal/Mol-Kelvin
 Total                   17.154             11.928             64.585
 Electronic               0.000              0.000              0.000
 Translational            0.889              2.981             38.341
 Rotational               0.889              2.981             23.274
 Vibrational             15.376              5.966              2.971
 Vibration     1          0.765              1.472              0.966
 Vibration     2          0.786              1.418              0.878
 Vibration     3          0.914              1.122              0.527

                       ! Non-Optimized Parameters !

 1\1\GINC-N2174\Freq\RMP2-FC\Aug-CC-pVTZ\H1N1O3\CGAVINH\06-Mar-2022\1\\
 #p freq mp2/aug-cc-pvtz density=current\\title\\0,1\H\O,1,r1\O,2,r2,1,
 a1\N,3,r3,2,a2,1,d1,0\O,4,r4,3,a3,2,d2,0\\r1=0.9930212\r2=1.42673666\r
 3=1.38110764\r4=1.19478846\a1=100.6355057\a2=113.13777052\a3=114.33392
 022\d1=0.\d2=0.\\Version=ES64L-G16RevB.01\State=1-A'\HF=-279.5059249\M
 P2=-280.4551959\RMSD=4.531e-09\RMSF=2.194e-03\ZeroPoint=0.023495\Therm
 al=0.0273359\Dipole=-0.1097961,0.,-0.4194694\DipoleDeriv=0.3198557,0.,
 0.0367677,0.,0.2968856,0.,-0.0282687,0.,0.2016379,-0.5289009,0.,0.2813

 Normal termination of Gaussian 16 at Sun Mar  6 18:50:28 2022.
