 Gaussian 16, Revision B.01,
 Gaussian 16:  ES64L-G16RevB.01 20-Dec-2017

 ---------------------------------------
 #p freq mp2/aug-cc-pvtz density=current
 ---------------------------------------

 -----
 title
 -----
 Symbolic Z-matrix:
 Charge =  0 Multiplicity = 1

                         Standard orientation:
 ---------------------------------------------------------------------
 Center     Atomic      Atomic             Coordinates (Angstroms)
 Number     Number       Type             X           Y           Z
 ---------------------------------------------------------------------
      1          1           0        1.546846    1.699003    0.000000
      2          8           0        1.453948    0.734491    0.000000
      3          8           0        0.000000    0.681344    0.000000
      4          7           0       -0.261633   -0.772151   -0.000000
      5          8           0       -1.418375   -0.952578   -0.000000
 ---------------------------------------------------------------------

 SCF Done:  E(RHF) =  -279.499863550     A.U. after   14 cycles
 E2 =    -0.9468028499D+00 EUMP2 =    -0.28044666640019D+03
 E2 =    -0.9468028499D+00 EUMP2 =    -0.28044666640019D+03

 The electronic state is 1-A'.
 Alpha  occ. eigenvalues --  -20.68857 -20.68783 -20.65777 -15.81575  -1.62335
 Alpha  occ. eigenvalues --   -1.49312  -1.24901  -0.94950  -0.77136  -0.75715
 Alpha  occ. eigenvalues --   -0.70885  -0.68029  -0.62134  -0.58845  -0.48331
 Alpha  occ. eigenvalues --   -0.47164
 Alpha virt. eigenvalues --    0.03012   0.06935   0.08560   0.10151   0.13385
 Alpha virt. eigenvalues --    0.13408   0.14446   0.15489   0.17865   0.19409
 Alpha virt. eigenvalues --    0.19972   0.20375   0.22129   0.23621   0.23717

 Mulliken charges:
               1
     1  H    0.250086
     2  O   -0.202829
     3  O   -0.158847
     4  N    0.296964
     5  O   -0.185374
 Sum of Mulliken charges =  -0.00000

 Dipole moment (field-independent basis, Debye):
    X=              0.4266    Y=              1.2558    Z=              0.0000  Tot=              1.3263
 Quadrupole moment (field-independent basis, Debye-Ang):
   XX=            -22.4382   YY=            -18.5385   ZZ=            -22.0362
   XY=              3.2900   XZ=             -0.0000   YZ=             -0.0000

  Exact polarizability:  33.992   9.573  30.629   0.000   0.000  17.990
 Approx polarizability:  29.094   5.229  23.936   0.000   0.000  15.550

 ******    1 imaginary frequencies (negative Signs) ******

                      1                      2                      3
                     A"                     A"                     A'
 Frequencies --   -274.1286               236.3884               335.1152
 Red. masses --      1.1350                10.7546                 8.5521
 Frc consts  --      0.0503                 0.3541                 0.5659
 IR Inten    --    125.1558                 0.6979                 8.1654

                      4                      5                      6
                     A'                     A'                     A'
 Frequencies --    417.1205               774.6521               964.3893
 Red. masses --     12.4321                13.0900                15.4832
 Frc consts  --      1.2744                 4.6281                 8.4843
 IR Inten    --    211.5836               157.8213                20.8238

                      7                      8                      9
                     A'                     A'                     A'
 Frequencies --   1367.8711              1669.3539              3778.2899
 Red. masses --      1.1310                13.2842                 1.0676
 Frc consts  --      1.2468                21.8113                 8.9791
 IR Inten    --    149.8090               149.4390                82.8151

 - Thermochemistry -
 -------------------
 Temperature   298.150 Kelvin.  Pressure   1.00000 Atm.
 Atom     1 has atomic number  1 and mass   1.00783

 Molecular mass:    62.99564 amu.
 Principal axes and moments of inertia in atomic units:
                           1         2         3
     Eigenvalues --    33.29953 363.46150 396.76103
           X            0.80558  -0.59249   0.00000
           Y            0.59249   0.80558   0.00000
           Z            0.00000  -0.00000   1.00000
 This molecule is an asymmetric top.
 Rotational symmetry number  1.
 Rotational temperatures (Kelvin)      2.60106     0.23830     0.21830
 Rotational constants (GHZ):          54.19720     4.96543     4.54869
    1 imaginary frequencies ignored.
 Zero-point vibrational energy      57080.9 (Joules/Mol)
                                   13.64266 (Kcal/Mol)
 Warning -- explicit consideration of   3 degrees of freedom as
           vibrations may cause significant error
 Vibrational temperatures:    340.11   482.16   600.14  1114.55  1387.54
          (Kelvin)           1968.06  2401.83  5436.12

 Zero-point correction=                           0.021741 (Hartree/Particle)
 Thermal correction to Energy=                    0.025890
 Thermal correction to Enthalpy=                  0.026834
 Thermal correction to Gibbs Free Energy=        -0.004411
 Sum of electronic and zero-point Energies=           -280.424925
 Sum of electronic and thermal Energies=              -280.420777
 Sum of electronic and thermal Enthalpies=            -280.419832
 Sum of electronic and thermal Free Energies=         -280.451077

                     E (Thermal)             CV                S
                      KCal/Mol        Cal/Mol-Kelvin    Cal/Mol-Kelvin
 Total                   16.246             12.055             65.760
 Electronic               0.000              0.000              0.000
 Translational            0.889              2.981             38.341
 Rotational               0.889              2.981             23.089
 Vibrational             14.469              6.094              4.330
 Vibration     1          0.655              1.785              1.830
 Vibration     2          0.716              1.605              1.235
 Vibration     3          0.780              1.433              0.902

                       ! Non-Optimized Parameters !

 1\1\GINC-N2109\Freq\RMP2-FC\Aug-CC-pVTZ\H1N1O3\CGAVINH\21-Feb-2022\1\\
 #p freq mp2/aug-cc-pvtz density=current\\title\\0,1\H\O,1,r1\O,2,r2,1,
 a1\N,3,r3,2,a2,1,d1,0\O,4,r4,3,a3,2,d2,0\\r1=0.96897556\r2=1.45491931\
 r3=1.47685535\r4=1.17072885\a1=97.59494903\a2=102.29752444\a3=109.0695
 5123\d1=180.\d2=180.\\Version=ES64L-G16RevB.01\State=1-A'\HF=-279.4998
 636\MP2=-280.4466664\RMSD=4.054e-09\RMSF=1.815e-03\ZeroPoint=0.021741\
 Thermal=0.0258897\Dipole=-0.1196915,0.,-0.5079039\DipoleDeriv=0.264795
 7,0.,0.0465778,0.,0.3550178,0.,0.0821335,0.,0.2756495,-0.3314765,0.,-0

 Normal termination of Gaussian 16 at Mon Feb 21 20:19:27 2022.
