 Gaussian 16, Revision B.01,
 Gaussian 16:  ES64L-G16RevB.01 20-Dec-2017

 ---------------------------------------
 #p freq mp2/aug-cc-pvtz density=current
 ---------------------------------------

 -----
 title
 -----
 Symbolic Z-matrix:
 Charge =  0 Multiplicity = 1

                         Standard orientation:
 ---------------------------------------------------------------------
 Center     Atomic      Atomic             Coordinates (Angstroms)
 Number     Number       Type             X           Y           Z
 ---------------------------------------------------------------------
      1          1           0        1.146322   -0.606862    0.000000
      2          8           0        1.315092    0.363954    0.000000
      3          8           0       -0.000000    0.917226    0.000000
      4          7           0       -0.992727   -0.042957   -0.000000
      5          8           0       -0.589746   -1.167735   -0.000000
 ---------------------------------------------------------------------

 SCF Done:  E(RHF) =  -279.506685191     A.U. after   14 cycles
 E2 =    -0.9483529899D+00 EUMP2 =    -0.28045503818134D+03
 E2 =    -0.9483529899D+00 EUMP2 =    -0.28045503818134D+03

 The electronic state is 1-A'.
 Alpha  occ. eigenvalues --  -20.72013 -20.68591 -20.66766 -15.82491  -1.64253
 Alpha  occ. eigenvalues --   -1.50386  -1.29359  -0.96043  -0.83272  -0.75809
 Alpha  occ. eigenvalues --   -0.73913  -0.63675  -0.61816  -0.61740  -0.50323
 Alpha  occ. eigenvalues --   -0.49726
 Alpha virt. eigenvalues --    0.03463   0.06121   0.09524   0.10045   0.12016
 Alpha virt. eigenvalues --    0.12259   0.14916   0.15096   0.17775   0.18106
 Alpha virt. eigenvalues --    0.18999   0.21132   0.21637   0.24277   0.24641

 Mulliken charges:
               1
     1  H    0.283629
     2  O   -0.273561
     3  O    0.037013
     4  N    0.151387
     5  O   -0.198468
 Sum of Mulliken charges =  -0.00000

 Dipole moment (field-independent basis, Debye):
    X=              0.1078    Y=             -1.1135    Z=             -0.0000  Tot=              1.1187
 Quadrupole moment (field-independent basis, Debye-Ang):
   XX=            -23.2852   YY=            -22.9337   ZZ=            -21.9422
   XY=             -2.0776   XZ=             -0.0000   YZ=             -0.0000

  Exact polarizability:  30.955   4.047  29.896   0.000   0.000  17.658
 Approx polarizability:  24.499   0.410  27.714   0.000   0.000  15.538

                      1                      2                      3
                     A"                     A'                     A"
 Frequencies --    320.4289               396.2146               524.5271
 Red. masses --      1.5345                 6.8820                 3.0183
 Frc consts  --      0.0928                 0.6365                 0.4893
 IR Inten    --     66.3828                 7.5278                25.1366

                      4                      5                      6
                     A'                     A'                     A'
 Frequencies --    708.9933               831.6680               967.6831
 Red. masses --     13.2027                11.3896                 9.7546
 Frc consts  --      3.9102                 4.6415                 5.3818
 IR Inten    --    218.6882                30.0444                12.7351

                      7                      8                      9
                     A'                     A'                     A'
 Frequencies --   1408.9646              1564.8016              3500.2125
 Red. masses --      1.2691                 8.2123                 1.0641
 Frc consts  --      1.4843                11.8476                 7.6810
 IR Inten    --     77.9379               149.2795                40.5433

 - Thermochemistry -
 -------------------
 Temperature   298.150 Kelvin.  Pressure   1.00000 Atm.
 Atom     1 has atomic number  1 and mass   1.00783

 Molecular mass:    62.99564 amu.
 Principal axes and moments of inertia in atomic units:
                           1         2         3
     Eigenvalues --    84.78012 222.71266 307.49278
           X            0.79787  -0.60283   0.00000
           Y            0.60283   0.79787   0.00000
           Z           -0.00000   0.00000   1.00000
 This molecule is an asymmetric top.
 Rotational symmetry number  1.
 Rotational temperatures (Kelvin)      1.02163     0.38890     0.28168
 Rotational constants (GHZ):          21.28732     8.10345     5.86921
 Zero-point vibrational energy      61150.1 (Joules/Mol)
                                   14.61522 (Kcal/Mol)
 Warning -- explicit consideration of   3 degrees of freedom as
           vibrations may cause significant error
 Vibrational temperatures:    461.03   570.06   754.68  1020.08  1196.58
          (Kelvin)           1392.28  2027.19  2251.40  5036.03

 Zero-point correction=                           0.023291 (Hartree/Particle)
 Thermal correction to Energy=                    0.027270
 Thermal correction to Enthalpy=                  0.028214
 Thermal correction to Gibbs Free Energy=        -0.002724
 Sum of electronic and zero-point Energies=           -280.431747
 Sum of electronic and thermal Energies=              -280.427768
 Sum of electronic and thermal Enthalpies=            -280.426824
 Sum of electronic and thermal Free Energies=         -280.457762

                     E (Thermal)             CV                S
                      KCal/Mol        Cal/Mol-Kelvin    Cal/Mol-Kelvin
 Total                   17.112             12.258             65.114
 Electronic               0.000              0.000              0.000
 Translational            0.889              2.981             38.341
 Rotational               0.889              2.981             23.278
 Vibrational             15.335              6.297              3.496
 Vibration     1          0.706              1.634              1.308
 Vibration     2          0.763              1.478              0.977
 Vibration     3          0.879              1.196              0.600

                       ! Non-Optimized Parameters !

 1\1\GINC-N2110\Freq\RMP2-FC\Aug-CC-pVTZ\H1N1O3\CGAVINH\06-Mar-2022\1\\
 #p freq mp2/aug-cc-pvtz density=current\\title\\0,1\H\O,1,r1\O,2,r2,1,
 a1\N,3,r3,2,a2,1,d1,0\O,4,r4,3,a3,2,d2,0\\r1=0.98537664\r2=1.42673666\
 r3=1.38110764\r4=1.19478846\a1=102.95499077\a2=113.13777052\a3=114.333
 92022\d1=0.\d2=0.\\Version=ES64L-G16RevB.01\State=1-A'\HF=-279.5066852
 \MP2=-280.4550382\RMSD=4.336e-09\RMSF=2.196e-03\ZeroPoint=0.0232908\Th
 ermal=0.0272697\Dipole=-0.1168373,0.,-0.4243456\DipoleDeriv=0.3110885,
 0.,0.0462971,0.,0.3035131,0.,-0.0041428,0.,0.1958011,-0.5309305,0.,0.2

 Normal termination of Gaussian 16 at Sun Mar  6 19:26:42 2022.
