 Gaussian 16, Revision B.01,
 Gaussian 16:  ES64L-G16RevB.01 20-Dec-2017

 ---------------------------------------
 #p freq mp2/aug-cc-pvtz density=current
 ---------------------------------------

 -----
 title
 -----
 Symbolic Z-matrix:
 Charge =  0 Multiplicity = 1

                         Standard orientation:
 ---------------------------------------------------------------------
 Center     Atomic      Atomic             Coordinates (Angstroms)
 Number     Number       Type             X           Y           Z
 ---------------------------------------------------------------------
      1          1           0        1.550368    1.698914    0.000000
      2          8           0        1.454066    0.722452    0.000000
      3          8           0       -0.000000    0.672629    0.000000
      4          7           0       -0.261712   -0.762487    0.000000
      5          8           0       -1.418864   -0.940269    0.000000
 ---------------------------------------------------------------------

 SCF Done:  E(RHF) =  -279.500969539     A.U. after   14 cycles
 E2 =    -0.9456322263D+00 EUMP2 =    -0.28044660176491D+03
 E2 =    -0.9456322263D+00 EUMP2 =    -0.28044660176491D+03

 The electronic state is 1-A'.
 Alpha  occ. eigenvalues --  -20.69056 -20.68406 -20.66092 -15.81258  -1.62375
 Alpha  occ. eigenvalues --   -1.49427  -1.25205  -0.94779  -0.77183  -0.75818
 Alpha  occ. eigenvalues --   -0.71151  -0.67748  -0.62010  -0.58884  -0.48481
 Alpha  occ. eigenvalues --   -0.47217
 Alpha virt. eigenvalues --    0.02939   0.07186   0.08600   0.10175   0.13396
 Alpha virt. eigenvalues --    0.13405   0.14354   0.15409   0.17843   0.19421
 Alpha virt. eigenvalues --    0.19985   0.20636   0.22086   0.23576   0.23749

 Mulliken charges:
               1
     1  H    0.259951
     2  O   -0.211298
     3  O   -0.146338
     4  N    0.290920
     5  O   -0.193234
 Sum of Mulliken charges =  -0.00000

 Dipole moment (field-independent basis, Debye):
    X=              0.5147    Y=              1.3763    Z=              0.0000  Tot=              1.4694
 Quadrupole moment (field-independent basis, Debye-Ang):
   XX=            -22.4745   YY=            -18.5680   ZZ=            -22.0257
   XY=              3.2801   XZ=             -0.0000   YZ=             -0.0000

  Exact polarizability:  34.058   9.529  30.424   0.000   0.000  17.958
 Approx polarizability:  29.041   5.122  23.649  -0.000  -0.000  15.542

                      1                      2                      3
                     A"                     A"                     A'
 Frequencies --    221.1514               304.6172               350.6583
 Red. masses --     12.1672                 1.1239                 9.0656
 Frc consts  --      0.3506                 0.0614                 0.6568
 IR Inten    --      7.4146               116.7752                 3.7591

                      4                      5                      6
                     A'                     A'                     A'
 Frequencies --    451.4576               789.0447               967.8435
 Red. masses --     12.3290                13.3638                15.1470
 Frc consts  --      1.4805                 4.9021                 8.3596
 IR Inten    --    200.4938               178.2354                20.6144

                      7                      8                      9
                     A'                     A'                     A'
 Frequencies --   1407.3900              1677.5989              3623.0375
 Red. masses --      1.1266                12.9144                 1.0676
 Frc consts  --      1.3148                21.4141                 8.2565
 IR Inten    --    151.9607               138.0385                80.9948

 - Thermochemistry -
 -------------------
 Temperature   298.150 Kelvin.  Pressure   1.00000 Atm.
 Atom     1 has atomic number  1 and mass   1.00783

 Molecular mass:    62.99564 amu.
 Principal axes and moments of inertia in atomic units:
                           1         2         3
     Eigenvalues --    32.87131 360.27980 393.15111
           X            0.81003  -0.58639   0.00000
           Y            0.58639   0.81003   0.00000
           Z            0.00000   0.00000   1.00000
 This molecule is an asymmetric top.
 Rotational symmetry number  1.
 Rotational temperatures (Kelvin)      2.63494     0.24041     0.22031
 Rotational constants (GHZ):          54.90324     5.00928     4.59045
 Zero-point vibrational energy      58573.9 (Joules/Mol)
                                   13.99951 (Kcal/Mol)
 Warning -- explicit consideration of   4 degrees of freedom as
           vibrations may cause significant error
 Vibrational temperatures:    318.19   438.28   504.52   649.55  1135.26
          (Kelvin)           1392.51  2024.92  2413.69  5212.74

 Zero-point correction=                           0.022310 (Hartree/Particle)
 Thermal correction to Energy=                    0.026841
 Thermal correction to Enthalpy=                  0.027785
 Thermal correction to Gibbs Free Energy=        -0.004068
 Sum of electronic and zero-point Energies=           -280.424292
 Sum of electronic and thermal Energies=              -280.419761
 Sum of electronic and thermal Enthalpies=            -280.418817
 Sum of electronic and thermal Free Energies=         -280.450670

                     E (Thermal)             CV                S
                      KCal/Mol        Cal/Mol-Kelvin    Cal/Mol-Kelvin
 Total                   16.843             13.593             67.040
 Electronic               0.000              0.000              0.000
 Translational            0.889              2.981             38.341
 Rotational               0.889              2.981             23.058
 Vibrational             15.065              7.631              5.641
 Vibration     1          0.648              1.809              1.950
 Vibration     2          0.696              1.665              1.391
 Vibration     3          0.728              1.574              1.163
 Vibration     4          0.810              1.358              0.791

                       ! Non-Optimized Parameters !

 1\1\GINC-N2125\Freq\RMP2-FC\Aug-CC-pVTZ\H1N1O3\CGAVINH\21-Feb-2022\1\\
 #p freq mp2/aug-cc-pvtz density=current\\title\\0,1\H\O,1,r1\O,2,r2,1,
 a1\N,3,r3,2,a2,1,d1,0\O,4,r4,3,a3,2,d2,0\\r1=0.98119908\r2=1.45491931\
 r3=1.45878406\r4=1.17072885\a1=97.59494903\a2=102.29752444\a3=109.0695
 5123\d1=180.\d2=180.\\Version=ES64L-G16RevB.01\State=1-A'\HF=-279.5009
 695\MP2=-280.4466018\RMSD=3.793e-09\RMSF=4.117e-03\ZeroPoint=0.0223096
 \Thermal=0.0268409\Dipole=-0.1483585,0.,-0.5587446\DipoleDeriv=0.26783
 64,0.,0.0479235,0.,0.3538703,0.,0.0797438,0.,0.2737959,-0.3280328,0.,-

 Normal termination of Gaussian 16 at Mon Feb 21 20:02:20 2022.
