 Gaussian 16, Revision B.01,
 Gaussian 16:  ES64L-G16RevB.01 20-Dec-2017

 ---------------------------------------
 #p freq mp2/aug-cc-pvtz density=current
 ---------------------------------------

 -----
 title
 -----
 Symbolic Z-matrix:
 Charge =  0 Multiplicity = 1

                         Standard orientation:
 ---------------------------------------------------------------------
 Center     Atomic      Atomic             Coordinates (Angstroms)
 Number     Number       Type             X           Y           Z
 ---------------------------------------------------------------------
      1          1           0        0.540626   -1.138372    0.032950
      2          8           0        1.277155   -0.484445    0.003425
      3          8           0        0.542837    0.738712   -0.012155
      4          7           0       -0.825105    0.550880    0.018034
      5          8           0       -1.165603   -0.593990   -0.011168
 ---------------------------------------------------------------------

 SCF Done:  E(RHF) =  -279.506303621     A.U. after   16 cycles
 E2 =    -0.9487546388D+00 EUMP2 =    -0.28045505825942D+03
 E2 =    -0.9487546388D+00 EUMP2 =    -0.28045505825942D+03

 The electronic state is 1-A.
 Alpha  occ. eigenvalues --  -20.71970 -20.68726 -20.66834 -15.82598  -1.64424
 Alpha  occ. eigenvalues --   -1.50517  -1.29374  -0.96036  -0.83455  -0.75894
 Alpha  occ. eigenvalues --   -0.73990  -0.63750  -0.61919  -0.61795  -0.50482
 Alpha  occ. eigenvalues --   -0.49728
 Alpha virt. eigenvalues --    0.03505   0.06013   0.09512   0.10038   0.11913
 Alpha virt. eigenvalues --    0.12305   0.14945   0.15204   0.17735   0.18054
 Alpha virt. eigenvalues --    0.18964   0.21116   0.21679   0.24253   0.24632

 Mulliken charges:
               1
     1  H    0.278147
     2  O   -0.274085
     3  O    0.037500
     4  N    0.154349
     5  O   -0.195910
 Sum of Mulliken charges =  -0.00000

 Dipole moment (field-independent basis, Debye):
    X=             -0.6062    Y=             -0.9133    Z=              0.0471  Tot=              1.0972
 Quadrupole moment (field-independent basis, Debye-Ang):
   XX=            -25.1099   YY=            -21.2129   ZZ=            -21.9309
   XY=             -0.3837   XZ=              0.0309   YZ=             -0.1217

  Exact polarizability:  34.495   0.730  26.271  -0.040  -0.008  17.625
 Approx polarizability:  26.138   1.635  26.069  -0.020   0.007  15.522

                      1                      2                      3
                      A                      A                      A
 Frequencies --    351.3752               395.7013               521.9194
 Red. masses --      1.5431                 7.1404                 2.9510
 Frc consts  --      0.1122                 0.6587                 0.4736
 IR Inten    --     63.4438                 7.8055                25.3492

                      4                      5                      6
                      A                      A                      A
 Frequencies --    711.5306               837.1934               970.9953
 Red. masses --     13.3055                12.3601                 9.7875
 Frc consts  --      3.9689                 5.1042                 5.4369
 IR Inten    --    217.2971                30.6026                12.7766

                      7                      8                      9
                      A                      A                      A
 Frequencies --   1434.6239              1570.1666              3488.0442
 Red. masses --      1.3056                 6.3861                 1.0638
 Frc consts  --      1.5832                 9.2764                 7.6254
 IR Inten    --     79.8637               149.9967                42.4936

 - Thermochemistry -
 -------------------
 Temperature   298.150 Kelvin.  Pressure   1.00000 Atm.
 Atom     1 has atomic number  1 and mass   1.00783

 Molecular mass:    62.99564 amu.
 Principal axes and moments of inertia in atomic units:
                           1         2         3
     Eigenvalues --    84.49513 222.75313 307.17605
           X            0.99987  -0.01593   0.00031
           Y            0.01593   0.99987  -0.00161
           Z           -0.00028   0.00161   1.00000
 This molecule is an asymmetric top.
 Rotational symmetry number  1.
 Rotational temperatures (Kelvin)      1.02508     0.38883     0.28197
 Rotational constants (GHZ):          21.35912     8.10198     5.87527
 Zero-point vibrational energy      61497.3 (Joules/Mol)
                                   14.69821 (Kcal/Mol)
 Warning -- explicit consideration of   3 degrees of freedom as
           vibrations may cause significant error
 Vibrational temperatures:    505.55   569.33   750.93  1023.73  1204.53
          (Kelvin)           1397.05  2064.10  2259.12  5018.52

 Zero-point correction=                           0.023423 (Hartree/Particle)
 Thermal correction to Energy=                    0.027365
 Thermal correction to Enthalpy=                  0.028309
 Thermal correction to Gibbs Free Energy=        -0.002555
 Sum of electronic and zero-point Energies=           -280.431635
 Sum of electronic and thermal Energies=              -280.427693
 Sum of electronic and thermal Enthalpies=            -280.426749
 Sum of electronic and thermal Free Energies=         -280.457613

                     E (Thermal)             CV                S
                      KCal/Mol        Cal/Mol-Kelvin    Cal/Mol-Kelvin
 Total                   17.172             12.176             64.959
 Electronic               0.000              0.000              0.000
 Translational            0.889              2.981             38.341
 Rotational               0.889              2.981             23.273
 Vibrational             15.394              6.214              3.345
 Vibration     1          0.728              1.572              1.160
 Vibration     2          0.762              1.479              0.979
 Vibration     3          0.877              1.201              0.606

                       ! Non-Optimized Parameters !

 1\1\GINC-N2109\Freq\RMP2-FC\Aug-CC-pVTZ\H1N1O3\CGAVINH\06-Mar-2022\1\\
 #p freq mp2/aug-cc-pvtz density=current\\title\\0,1\H\O,1,r1\O,2,r2,1,
 a1\N,3,r3,2,a2,1,d1,0\O,4,r4,3,a3,2,d2,0\\r1=0.98537664\r2=1.42673666\
 r3=1.38110764\r4=1.19478846\a1=100.6355057\a2=113.13777052\a3=114.3339
 2022\d1=0.\d2=-3.32021761\\Version=ES64L-G16RevB.01\State=1-A\HF=-279.
 5063036\MP2=-280.4550583\RMSD=6.468e-09\RMSF=1.736e-03\ZeroPoint=0.023
 4231\Thermal=0.0273651\Dipole=-0.1103869,0.0054387,-0.4172834\DipoleDe
 riv=0.3165686,-0.0025169,0.0382203,-0.0032026,0.298176,0.0003176,-0.02

 Normal termination of Gaussian 16 at Sun Mar  6 20:07:14 2022.
