 Gaussian 16, Revision B.01,
 Gaussian 16:  ES64L-G16RevB.01 20-Dec-2017

 ---------------------------------------
 #p freq mp2/aug-cc-pvtz density=current
 ---------------------------------------

 -----
 title
 -----
 Symbolic Z-matrix:
 Charge =  0 Multiplicity = 1

                         Standard orientation:
 ---------------------------------------------------------------------
 Center     Atomic      Atomic             Coordinates (Angstroms)
 Number     Number       Type             X           Y           Z
 ---------------------------------------------------------------------
      1          1           0        0.540408   -1.138446    0.028539
      2          8           0        1.277057   -0.484488    0.002967
      3          8           0        0.542870    0.738772   -0.010527
      4          7           0       -0.825157    0.550955    0.015619
      5          8           0       -1.165465   -0.594064   -0.009674
 ---------------------------------------------------------------------

 SCF Done:  E(RHF) =  -279.506334923     A.U. after   15 cycles
 E2 =    -0.9487687753D+00 EUMP2 =    -0.28045510369829D+03
 E2 =    -0.9487687753D+00 EUMP2 =    -0.28045510369829D+03

 The electronic state is 1-A.
 Alpha  occ. eigenvalues --  -20.71973 -20.68726 -20.66832 -15.82599  -1.64425
 Alpha  occ. eigenvalues --   -1.50516  -1.29375  -0.96036  -0.83459  -0.75893
 Alpha  occ. eigenvalues --   -0.73992  -0.63747  -0.61911  -0.61802  -0.50479
 Alpha  occ. eigenvalues --   -0.49734
 Alpha virt. eigenvalues --    0.03505   0.06016   0.09512   0.10038   0.11926
 Alpha virt. eigenvalues --    0.12295   0.14942   0.15204   0.17739   0.18049
 Alpha virt. eigenvalues --    0.18967   0.21112   0.21677   0.24253   0.24633

 Mulliken charges:
               1
     1  H    0.278090
     2  O   -0.274113
     3  O    0.037599
     4  N    0.154275
     5  O   -0.195852
 Sum of Mulliken charges =  -0.00000

 Dipole moment (field-independent basis, Debye):
    X=             -0.6062    Y=             -0.9130    Z=              0.0408  Tot=              1.0967
 Quadrupole moment (field-independent basis, Debye-Ang):
   XX=            -25.1098   YY=            -21.2125   ZZ=            -21.9316
   XY=             -0.3832   XZ=              0.0267   YZ=             -0.1054

  Exact polarizability:  34.496   0.730  26.272  -0.035  -0.007  17.623
 Approx polarizability:  26.139   1.635  26.071  -0.017   0.006  15.520

                      1                      2                      3
                      A                      A                      A
 Frequencies --    351.9596               396.0757               522.3108
 Red. masses --      1.5464                 7.1205                 2.9410
 Frc consts  --      0.1129                 0.6581                 0.4727
 IR Inten    --     63.2896                 7.7959                25.3838

                      4                      5                      6
                      A                      A                      A
 Frequencies --    711.5040               837.1152               970.9931
 Red. masses --     13.3135                12.3645                 9.7814
 Frc consts  --      3.9710                 5.1050                 5.4335
 IR Inten    --    217.2752                30.6462                12.7701

                      7                      8                      9
                      A                      A                      A
 Frequencies --   1434.4505              1570.2237              3487.9190
 Red. masses --      1.3056                 6.3906                 1.0638
 Frc consts  --      1.5828                 9.2835                 7.6248
 IR Inten    --     79.8865               150.0679                42.5546

 - Thermochemistry -
 -------------------
 Temperature   298.150 Kelvin.  Pressure   1.00000 Atm.
 Atom     1 has atomic number  1 and mass   1.00783

 Molecular mass:    62.99564 amu.
 Principal axes and moments of inertia in atomic units:
                           1         2         3
     Eigenvalues --    84.50333 222.71698 307.16613
           X            0.99987  -0.01593   0.00026
           Y            0.01593   0.99987  -0.00139
           Z           -0.00024   0.00140   1.00000
 This molecule is an asymmetric top.
 Rotational symmetry number  1.
 Rotational temperatures (Kelvin)      1.02498     0.38890     0.28198
 Rotational constants (GHZ):          21.35704     8.10329     5.87546
 Zero-point vibrational energy      61503.3 (Joules/Mol)
                                   14.69965 (Kcal/Mol)
 Warning -- explicit consideration of   3 degrees of freedom as
           vibrations may cause significant error
 Vibrational temperatures:    506.39   569.86   751.49  1023.70  1204.42
          (Kelvin)           1397.04  2063.85  2259.20  5018.34

 Zero-point correction=                           0.023425 (Hartree/Particle)
 Thermal correction to Energy=                    0.027366
 Thermal correction to Enthalpy=                  0.028310
 Thermal correction to Gibbs Free Energy=        -0.002552
 Sum of electronic and zero-point Energies=           -280.431678
 Sum of electronic and thermal Energies=              -280.427738
 Sum of electronic and thermal Enthalpies=            -280.426793
 Sum of electronic and thermal Free Energies=         -280.457655

                     E (Thermal)             CV                S
                      KCal/Mol        Cal/Mol-Kelvin    Cal/Mol-Kelvin
 Total                   17.173             12.173             64.954
 Electronic               0.000              0.000              0.000
 Translational            0.889              2.981             38.341
 Rotational               0.889              2.981             23.273
 Vibrational             15.395              6.212              3.340
 Vibration     1          0.729              1.571              1.157
 Vibration     2          0.763              1.479              0.977
 Vibration     3          0.877              1.201              0.605

                       ! Non-Optimized Parameters !

 1\1\GINC-N2219\Freq\RMP2-FC\Aug-CC-pVTZ\H1N1O3\CGAVINH\06-Mar-2022\1\\
 #p freq mp2/aug-cc-pvtz density=current\\title\\0,1\H\O,1,r1\O,2,r2,1,
 a1\N,3,r3,2,a2,1,d1,0\O,4,r4,3,a3,2,d2,0\\r1=0.98537664\r2=1.42673666\
 r3=1.38110764\r4=1.19478846\a1=100.6355057\a2=113.13777052\a3=114.3339
 2022\d1=0.\d2=-2.8753928\\Version=ES64L-G16RevB.01\State=1-A\HF=-279.5
 063349\MP2=-280.4551037\RMSD=9.558e-09\RMSF=1.507e-03\ZeroPoint=0.0234
 254\Thermal=0.0273661\Dipole=-0.1103346,0.0047135,-0.4171049\DipoleDer
 iv=0.316654,-0.002183,0.0381346,-0.0027789,0.2981488,0.0002795,-0.0240

 Normal termination of Gaussian 16 at Sun Mar  6 20:05:59 2022.
