 Gaussian 16, Revision B.01,
 Gaussian 16:  ES64L-G16RevB.01 20-Dec-2017

 ---------------------------------------
 #p freq mp2/aug-cc-pvtz density=current
 ---------------------------------------

 -----
 title
 -----
 Symbolic Z-matrix:
 Charge =  0 Multiplicity = 1

                         Standard orientation:
 ---------------------------------------------------------------------
 Center     Atomic      Atomic             Coordinates (Angstroms)
 Number     Number       Type             X           Y           Z
 ---------------------------------------------------------------------
      1          1           0        1.101416   -0.588739   -0.000000
      2          8           0        1.303765    0.375638   -0.000000
      3          8           0        0.000000    0.915291    0.000000
      4          7           0       -0.987158   -0.050617    0.000000
      5          8           0       -0.577679   -1.173046   -0.000000
 ---------------------------------------------------------------------

 SCF Done:  E(RHF) =  -279.507230545     A.U. after   14 cycles
 E2 =    -0.9478882532D+00 EUMP2 =    -0.28045511879822D+03
 E2 =    -0.9478882532D+00 EUMP2 =    -0.28045511879822D+03

 The electronic state is 1-A'.
 Alpha  occ. eigenvalues --  -20.71990 -20.68750 -20.66680 -15.82579  -1.64696
 Alpha  occ. eigenvalues --   -1.51054  -1.29175  -0.96124  -0.83758  -0.76007
 Alpha  occ. eigenvalues --   -0.74226  -0.63516  -0.62239  -0.62001  -0.50526
 Alpha  occ. eigenvalues --   -0.49481
 Alpha virt. eigenvalues --    0.03524   0.06018   0.09514   0.10053   0.11960
 Alpha virt. eigenvalues --    0.12292   0.14969   0.15354   0.17748   0.18011
 Alpha virt. eigenvalues --    0.18968   0.21109   0.21686   0.24637   0.25007

 Mulliken charges:
               1
     1  H    0.275244
     2  O   -0.272460
     3  O    0.042581
     4  N    0.150988
     5  O   -0.196353
 Sum of Mulliken charges =   0.00000

 Dipole moment (field-independent basis, Debye):
    X=              0.0789    Y=             -1.0725    Z=             -0.0000  Tot=              1.0754
 Quadrupole moment (field-independent basis, Debye-Ang):
   XX=            -23.3789   YY=            -22.9674   ZZ=            -21.9124
   XY=             -1.9385   XZ=              0.0000   YZ=             -0.0000

  Exact polarizability:  30.659   4.231  29.866  -0.000   0.000  17.576
 Approx polarizability:  24.248   0.635  27.603  -0.000   0.000  15.492

                      1                      2                      3
                     A"                     A'                     A"
 Frequencies --    354.0806               399.4605               524.9080
 Red. masses --      1.5675                 7.0365                 2.8728
 Frc consts  --      0.1158                 0.6615                 0.4664
 IR Inten    --     62.1556                 7.9574                25.6462

                      4                      5                      6
                     A'                     A'                     A'
 Frequencies --    715.4271               862.7127               992.8555
 Red. masses --     13.3786                11.5062                10.5329
 Frc consts  --      4.0345                 5.0456                 6.1174
 IR Inten    --    221.3822                30.6343                11.9289

                      7                      8                      9
                     A'                     A'                     A'
 Frequencies --   1448.0445              1574.4938              3480.7098
 Red. masses --      1.3541                 5.4168                 1.0635
 Frc consts  --      1.6729                 7.9118                 7.5912
 IR Inten    --     79.5619               151.8032                43.5358

 - Thermochemistry -
 -------------------
 Temperature   298.150 Kelvin.  Pressure   1.00000 Atm.
 Atom     1 has atomic number  1 and mass   1.00783

 Molecular mass:    62.99564 amu.
 Principal axes and moments of inertia in atomic units:
                           1         2         3
     Eigenvalues --    83.59826 221.44654 305.04480
           X            0.78793  -0.61576   0.00000
           Y            0.61576   0.78793   0.00000
           Z            0.00000  -0.00000   1.00000
 This molecule is an asymmetric top.
 Rotational symmetry number  1.
 Rotational temperatures (Kelvin)      1.03607     0.39113     0.28394
 Rotational constants (GHZ):          21.58826     8.14978     5.91632
 Zero-point vibrational energy      61922.9 (Joules/Mol)
                                   14.79992 (Kcal/Mol)
 Warning -- explicit consideration of   3 degrees of freedom as
           vibrations may cause significant error
 Vibrational temperatures:    509.44   574.73   755.23  1029.34  1241.25
          (Kelvin)           1428.50  2083.41  2265.35  5007.97

 Zero-point correction=                           0.023585 (Hartree/Particle)
 Thermal correction to Energy=                    0.027507
 Thermal correction to Enthalpy=                  0.028451
 Thermal correction to Gibbs Free Energy=        -0.002371
 Sum of electronic and zero-point Energies=           -280.431534
 Sum of electronic and thermal Energies=              -280.427612
 Sum of electronic and thermal Enthalpies=            -280.426668
 Sum of electronic and thermal Free Energies=         -280.457490

                     E (Thermal)             CV                S
                      KCal/Mol        Cal/Mol-Kelvin    Cal/Mol-Kelvin
 Total                   17.261             12.080             64.872
 Electronic               0.000              0.000              0.000
 Translational            0.889              2.981             38.341
 Rotational               0.889              2.981             23.250
 Vibrational             15.483              6.118              3.281
 Vibration     1          0.730              1.567              1.148
 Vibration     2          0.766              1.471              0.965
 Vibration     3          0.880              1.195              0.599

                       ! Non-Optimized Parameters !

 1\1\GINC-N2218\Freq\RMP2-FC\Aug-CC-pVTZ\H1N1O3\CGAVINH\06-Mar-2022\1\\
 #p freq mp2/aug-cc-pvtz density=current\\title\\0,1\H\O,1,r1\O,2,r2,1,
 a1\N,3,r3,2,a2,1,d1,0\O,4,r4,3,a3,2,d2,0\\r1=0.98537664\r2=1.41103804\
 r3=1.38110764\r4=1.19478846\a1=100.6355057\a2=113.13777052\a3=114.3339
 2022\d1=0.\d2=0.\\Version=ES64L-G16RevB.01\State=1-A'\HF=-279.5072305\
 MP2=-280.4551188\RMSD=4.153e-09\RMSF=2.708e-03\ZeroPoint=0.0235852\The
 rmal=0.027507\Dipole=-0.1170428,0.,-0.4065836\DipoleDeriv=0.3170837,0.
 ,0.0384916,0.,0.2972705,0.,-0.0295255,0.,0.2015714,-0.5277949,0.,0.298

 Normal termination of Gaussian 16 at Sun Mar  6 19:03:43 2022.
