 Gaussian 16, Revision B.01,
 Gaussian 16:  ES64L-G16RevB.01 20-Dec-2017

 ---------------------------------------
 #p freq mp2/aug-cc-pvtz density=current
 ---------------------------------------

 -----
 title
 -----
 Symbolic Z-matrix:
 Charge =  0 Multiplicity = 1

                         Standard orientation:
 ---------------------------------------------------------------------
 Center     Atomic      Atomic             Coordinates (Angstroms)
 Number     Number       Type             X           Y           Z
 ---------------------------------------------------------------------
      1          1           0        1.102996   -0.606122    0.000000
      2          8           0        1.313566    0.356493    0.000000
      3          8           0        0.000000    0.913379    0.000000
      4          7           0       -0.987375   -0.036386    0.000000
      5          8           0       -0.587488   -1.162268    0.000000
 ---------------------------------------------------------------------

 SCF Done:  E(RHF) =  -279.507320599     A.U. after   14 cycles
 E2 =    -0.9478774805D+00 EUMP2 =    -0.28045519807923D+03
 E2 =    -0.9478774805D+00 EUMP2 =    -0.28045519807923D+03

 The electronic state is 1-A'.
 Alpha  occ. eigenvalues --  -20.72166 -20.68466 -20.66891 -15.82466  -1.64713
 Alpha  occ. eigenvalues --   -1.50517  -1.29777  -0.95978  -0.83590  -0.76033
 Alpha  occ. eigenvalues --   -0.74254  -0.63777  -0.61838  -0.61735  -0.50481
 Alpha  occ. eigenvalues --   -0.49860
 Alpha virt. eigenvalues --    0.03502   0.06191   0.09514   0.10043   0.11971
 Alpha virt. eigenvalues --    0.12283   0.14901   0.15181   0.17746   0.18052
 Alpha virt. eigenvalues --    0.18970   0.21111   0.21666   0.24267   0.24640

 Mulliken charges:
               1
     1  H    0.278015
     2  O   -0.275762
     3  O    0.046613
     4  N    0.150232
     5  O   -0.199098
 Sum of Mulliken charges =  -0.00000

 Dipole moment (field-independent basis, Debye):
    X=              0.0782    Y=             -1.0432    Z=              0.0000  Tot=              1.0461
 Quadrupole moment (field-independent basis, Debye-Ang):
   XX=            -23.4168   YY=            -22.9177   ZZ=            -21.9152
   XY=             -1.9975   XZ=              0.0000   YZ=              0.0000

  Exact polarizability:  30.864   4.060  29.693   0.000   0.000  17.583
 Approx polarizability:  24.474   0.468  27.490  -0.000  -0.000  15.496

                      1                      2                      3
                     A"                     A'                     A"
 Frequencies --    358.5163               406.0925               525.9203
 Red. masses --      1.5876                 6.9838                 2.8082
 Frc consts  --      0.1202                 0.6786                 0.4576
 IR Inten    --     62.0043                 7.4559                26.4891

                      4                      5                      6
                     A'                     A'                     A'
 Frequencies --    751.8011               837.7522               973.9597
 Red. masses --     13.3024                12.5598                 9.6119
 Frc consts  --      4.4298                 5.1935                 5.3721
 IR Inten    --    204.5058                33.9044                13.8911

                      7                      8                      9
                     A'                     A'                     A'
 Frequencies --   1432.9712              1576.1991              3486.2247
 Red. masses --      1.2993                 6.6680                 1.0636
 Frc consts  --      1.5719                 9.7603                 7.6162
 IR Inten    --     80.7769               150.4587                44.7163

 - Thermochemistry -
 -------------------
 Temperature   298.150 Kelvin.  Pressure   1.00000 Atm.
 Atom     1 has atomic number  1 and mass   1.00783

 Molecular mass:    62.99564 amu.
 Principal axes and moments of inertia in atomic units:
                           1         2         3
     Eigenvalues --    84.51009 220.26029 304.77038
           X            0.79973  -0.60036   0.00000
           Y            0.60036   0.79973   0.00000
           Z            0.00000   0.00000   1.00000
 This molecule is an asymmetric top.
 Rotational symmetry number  1.
 Rotational temperatures (Kelvin)      1.02489     0.39323     0.28419
 Rotational constants (GHZ):          21.35533     8.19367     5.92164
 Zero-point vibrational energy      61903.4 (Joules/Mol)
                                   14.79526 (Kcal/Mol)
 Warning -- explicit consideration of   3 degrees of freedom as
           vibrations may cause significant error
 Vibrational temperatures:    515.82   584.28   756.68  1081.67  1205.34
          (Kelvin)           1401.31  2061.73  2267.80  5015.90

 Zero-point correction=                           0.023578 (Hartree/Particle)
 Thermal correction to Energy=                    0.027484
 Thermal correction to Enthalpy=                  0.028428
 Thermal correction to Gibbs Free Energy=        -0.002369
 Sum of electronic and zero-point Energies=           -280.431620
 Sum of electronic and thermal Energies=              -280.427714
 Sum of electronic and thermal Enthalpies=            -280.426770
 Sum of electronic and thermal Free Energies=         -280.457567

                     E (Thermal)             CV                S
                      KCal/Mol        Cal/Mol-Kelvin    Cal/Mol-Kelvin
 Total                   17.246             12.051             64.818
 Electronic               0.000              0.000              0.000
 Translational            0.889              2.981             38.341
 Rotational               0.889              2.981             23.255
 Vibrational             15.469              6.090              3.222
 Vibration     1          0.733              1.558              1.129
 Vibration     2          0.771              1.457              0.941
 Vibration     3          0.881              1.193              0.596

                       ! Non-Optimized Parameters !

 1\1\GINC-N2174\Freq\RMP2-FC\Aug-CC-pVTZ\H1N1O3\CGAVINH\06-Mar-2022\1\\
 #p freq mp2/aug-cc-pvtz density=current\\title\\0,1\H\O,1,r1\O,2,r2,1,
 a1\N,3,r3,2,a2,1,d1,0\O,4,r4,3,a3,2,d2,0\\r1=0.98537664\r2=1.42673666\
 r3=1.37002271\r4=1.19478846\a1=100.6355057\a2=113.13777052\a3=114.3339
 2022\d1=0.\d2=0.\\Version=ES64L-G16RevB.01\State=1-A'\HF=-279.5073206\
 MP2=-280.4551981\RMSD=4.139e-09\RMSF=1.538e-03\ZeroPoint=0.0235778\The
 rmal=0.0274839\Dipole=-0.1177789,0.,-0.3943591\DipoleDeriv=0.3196242,0
 .,0.0369932,0.,0.2982052,0.,-0.0258831,0.,0.2045539,-0.5320017,0.,0.28

 Normal termination of Gaussian 16 at Sun Mar  6 19:12:10 2022.
