 Gaussian 16, Revision B.01,
 Gaussian 16:  ES64L-G16RevB.01 20-Dec-2017

 ---------------------------------------
 #p freq mp2/aug-cc-pvtz density=current
 ---------------------------------------

 -----
 title
 -----
 Symbolic Z-matrix:
 Charge =  0 Multiplicity = 1

                         Standard orientation:
 ---------------------------------------------------------------------
 Center     Atomic      Atomic             Coordinates (Angstroms)
 Number     Number       Type             X           Y           Z
 ---------------------------------------------------------------------
      1          1           0        0.540732   -1.138284    0.039080
      2          8           0        1.276753   -0.484567   -0.004450
      3          8           0        0.542908    0.738960    0.001219
      4          7           0       -0.825367    0.551129    0.001517
      5          8           0       -1.165056   -0.594345   -0.002981
 ---------------------------------------------------------------------

 SCF Done:  E(RHF) =  -279.506417082     A.U. after   14 cycles
 E2 =    -0.9488004271D+00 EUMP2 =    -0.28045521750896D+03
 E2 =    -0.9488004271D+00 EUMP2 =    -0.28045521750896D+03

 The electronic state is 1-A.
 Alpha  occ. eigenvalues --  -20.71979 -20.68721 -20.66832 -15.82598  -1.64424
 Alpha  occ. eigenvalues --   -1.50515  -1.29376  -0.96033  -0.83460  -0.75889
 Alpha  occ. eigenvalues --   -0.73999  -0.63752  -0.61898  -0.61795  -0.50467
 Alpha  occ. eigenvalues --   -0.49753
 Alpha virt. eigenvalues --    0.03505   0.06029   0.09512   0.10039   0.11961
 Alpha virt. eigenvalues --    0.12261   0.14941   0.15202   0.17738   0.18049
 Alpha virt. eigenvalues --    0.18967   0.21114   0.21674   0.24250   0.24633

 Mulliken charges:
               1
     1  H    0.278011
     2  O   -0.274102
     3  O    0.037752
     4  N    0.154134
     5  O   -0.195795
 Sum of Mulliken charges =  -0.00000

 Dipole moment (field-independent basis, Debye):
    X=             -0.6043    Y=             -0.9124    Z=              0.0621  Tot=              1.0961
 Quadrupole moment (field-independent basis, Debye-Ang):
   XX=            -25.1091   YY=            -21.2133   ZZ=            -21.9293
   XY=             -0.3841   XZ=              0.0288   YZ=             -0.1113

  Exact polarizability:  34.496   0.729  26.277   0.004  -0.024  17.622
 Approx polarizability:  26.138   1.633  26.079  -0.033  -0.021  15.519

                      1                      2                      3
                      A                      A                      A
 Frequencies --    350.2149               398.0813               522.5412
 Red. masses --      1.5548                 6.8132                 2.9705
 Frc consts  --      0.1124                 0.6361                 0.4779
 IR Inten    --     62.6409                 8.4550                24.8243

                      4                      5                      6
                      A                      A                      A
 Frequencies --    711.4645               836.9192               970.9860
 Red. masses --     13.2138                12.3774                 9.7725
 Frc consts  --      3.9408                 5.1080                 5.4285
 IR Inten    --    217.3397                30.9355                12.7401

                      7                      8                      9
                      A                      A                      A
 Frequencies --   1434.4670              1570.2700              3487.9365
 Red. masses --      1.3049                 6.4096                 1.0638
 Frc consts  --      1.5820                 9.3117                 7.6249
 IR Inten    --     79.8545               150.1392                42.5084

 - Thermochemistry -
 -------------------
 Temperature   298.150 Kelvin.  Pressure   1.00000 Atm.
 Atom     1 has atomic number  1 and mass   1.00783

 Molecular mass:    62.99564 amu.
 Principal axes and moments of inertia in atomic units:
                           1         2         3
     Eigenvalues --    84.53076 222.61899 307.13591
           X            0.99987  -0.01595   0.00036
           Y            0.01595   0.99987  -0.00190
           Z           -0.00033   0.00191   1.00000
 This molecule is an asymmetric top.
 Rotational symmetry number  1.
 Rotational temperatures (Kelvin)      1.02464     0.38907     0.28201
 Rotational constants (GHZ):          21.35011     8.10686     5.87603
 Zero-point vibrational energy      61505.3 (Joules/Mol)
                                   14.70012 (Kcal/Mol)
 Warning -- explicit consideration of   3 degrees of freedom as
           vibrations may cause significant error
 Vibrational temperatures:    503.88   572.75   751.82  1023.64  1204.14
          (Kelvin)           1397.03  2063.88  2259.27  5018.36

 Zero-point correction=                           0.023426 (Hartree/Particle)
 Thermal correction to Energy=                    0.027367
 Thermal correction to Enthalpy=                  0.028311
 Thermal correction to Gibbs Free Energy=        -0.002551
 Sum of electronic and zero-point Energies=           -280.431791
 Sum of electronic and thermal Energies=              -280.427851
 Sum of electronic and thermal Enthalpies=            -280.426907
 Sum of electronic and thermal Free Energies=         -280.457768

                     E (Thermal)             CV                S
                      KCal/Mol        Cal/Mol-Kelvin    Cal/Mol-Kelvin
 Total                   17.173             12.173             64.954
 Electronic               0.000              0.000              0.000
 Translational            0.889              2.981             38.341
 Rotational               0.889              2.981             23.273
 Vibrational             15.395              6.211              3.341
 Vibration     1          0.727              1.575              1.165
 Vibration     2          0.764              1.474              0.970
 Vibration     3          0.878              1.200              0.604

                       ! Non-Optimized Parameters !

 1\1\GINC-N2398\Freq\RMP2-FC\Aug-CC-pVTZ\H1N1O3\CGAVINH\06-Mar-2022\1\\
 #p freq mp2/aug-cc-pvtz density=current\\title\\0,1\H\O,1,r1\O,2,r2,1,
 a1\N,3,r3,2,a2,1,d1,0\O,4,r4,3,a3,2,d2,0\\r1=0.98537664\r2=1.42673666\
 r3=1.38110764\r4=1.19478846\a1=100.6355057\a2=113.13777052\a3=114.3339
 2022\d1=-2.70290125\d2=0.\\Version=ES64L-G16RevB.01\State=1-A\HF=-279.
 5064171\MP2=-280.4552175\RMSD=6.570e-09\RMSF=3.452e-04\ZeroPoint=0.023
 4261\Thermal=0.0273668\Dipole=-0.1104212,0.0073821,-0.4168013\DipoleDe
 riv=0.3165031,-0.0046124,0.0382373,-0.0063884,0.2982951,-0.0014258,-0.

 Normal termination of Gaussian 16 at Sun Mar  6 19:54:47 2022.
