 Gaussian 16, Revision B.01,
 Gaussian 16:  ES64L-G16RevB.01 20-Dec-2017

 ---------------------------------------
 #p freq mp2/aug-cc-pvtz density=current
 ---------------------------------------

 -----
 title
 -----
 Symbolic Z-matrix:
 Charge =  0 Multiplicity = 1

                         Standard orientation:
 ---------------------------------------------------------------------
 Center     Atomic      Atomic             Coordinates (Angstroms)
 Number     Number       Type             X           Y           Z
 ---------------------------------------------------------------------
      1          1           0        1.093178   -0.604796    0.000000
      2          8           0        1.309949    0.356441   -0.000000
      3          8           0       -0.000000    0.921783   -0.000000
      4          7           0       -0.988854   -0.042388    0.000000
      5          8           0       -0.581349   -1.165535    0.000000
 ---------------------------------------------------------------------

 SCF Done:  E(RHF) =  -279.506214868     A.U. after   14 cycles
 E2 =    -0.9489753807D+00 EUMP2 =    -0.28045519024912D+03
 E2 =    -0.9489753807D+00 EUMP2 =    -0.28045519024912D+03

 The electronic state is 1-A'.
 Alpha  occ. eigenvalues --  -20.72071 -20.68771 -20.66722 -15.82602  -1.64538
 Alpha  occ. eigenvalues --   -1.50505  -1.29374  -0.96048  -0.83624  -0.75932
 Alpha  occ. eigenvalues --   -0.74057  -0.63638  -0.61931  -0.61811  -0.50521
 Alpha  occ. eigenvalues --   -0.49774
 Alpha virt. eigenvalues --    0.03522   0.05991   0.09507   0.10012   0.11970
 Alpha virt. eigenvalues --    0.12269   0.14963   0.15248   0.17745   0.18013
 Alpha virt. eigenvalues --    0.18969   0.21099   0.21671   0.24345   0.24627

 Mulliken charges:
               1
     1  H    0.275503
     2  O   -0.275195
     3  O    0.037727
     4  N    0.155512
     5  O   -0.193547
 Sum of Mulliken charges =  -0.00000

 Dipole moment (field-independent basis, Debye):
    X=              0.0277    Y=             -1.0869    Z=              0.0000  Tot=              1.0873
 Quadrupole moment (field-independent basis, Debye-Ang):
   XX=            -23.4401   YY=            -22.8900   ZZ=            -21.9306
   XY=             -1.9573   XZ=              0.0000   YZ=              0.0000

  Exact polarizability:  30.776   4.071  29.803  -0.000  -0.000  17.605
 Approx polarizability:  24.470   0.454  27.669  -0.000  -0.000  15.506

                      1                      2                      3
                     A"                     A'                     A"
 Frequencies --    352.8295               413.5449               526.9923
 Red. masses --      1.5607                 7.1051                 2.8892
 Frc consts  --      0.1145                 0.7159                 0.4728
 IR Inten    --     62.4047                 7.8162                25.2459

                      4                      5                      6
                     A'                     A'                     A'
 Frequencies --    710.2437               838.0338               970.7335
 Red. masses --     13.4128                12.4846                 9.8935
 Frc consts  --      3.9864                 5.1659                 5.4929
 IR Inten    --    214.9206                32.1048                12.6320

                      7                      8                      9
                     A'                     A'                     A'
 Frequencies --   1436.1789              1573.4086              3481.7996
 Red. masses --      1.3207                 5.9418                 1.0636
 Frc consts  --      1.6050                 8.6666                 7.5971
 IR Inten    --     81.1452               148.7418                45.4422

 - Thermochemistry -
 -------------------
 Temperature   298.150 Kelvin.  Pressure   1.00000 Atm.
 Atom     1 has atomic number  1 and mass   1.00783

 Molecular mass:    62.99564 amu.
 Principal axes and moments of inertia in atomic units:
                           1         2         3
     Eigenvalues --    85.08429 220.13513 305.21942
           X            0.79504  -0.60655   0.00000
           Y            0.60655   0.79504   0.00000
           Z            0.00000  -0.00000   1.00000
 This molecule is an asymmetric top.
 Rotational symmetry number  1.
 Rotational temperatures (Kelvin)      1.01798     0.39346     0.28378
 Rotational constants (GHZ):          21.21122     8.19833     5.91293
 Zero-point vibrational energy      61630.2 (Joules/Mol)
                                   14.72997 (Kcal/Mol)
 Warning -- explicit consideration of   3 degrees of freedom as
           vibrations may cause significant error
 Vibrational temperatures:    507.64   595.00   758.22  1021.88  1205.74
          (Kelvin)           1396.67  2066.34  2263.78  5009.53

 Zero-point correction=                           0.023474 (Hartree/Particle)
 Thermal correction to Energy=                    0.027394
 Thermal correction to Enthalpy=                  0.028338
 Thermal correction to Gibbs Free Energy=        -0.002482
 Sum of electronic and zero-point Energies=           -280.431717
 Sum of electronic and thermal Energies=              -280.427797
 Sum of electronic and thermal Enthalpies=            -280.426852
 Sum of electronic and thermal Free Energies=         -280.457672

                     E (Thermal)             CV                S
                      KCal/Mol        Cal/Mol-Kelvin    Cal/Mol-Kelvin
 Total                   17.190             12.124             64.866
 Electronic               0.000              0.000              0.000
 Translational            0.889              2.981             38.341
 Rotational               0.889              2.981             23.262
 Vibrational             15.412              6.162              3.264
 Vibration     1          0.729              1.569              1.154
 Vibration     2          0.777              1.441              0.914
 Vibration     3          0.882              1.190              0.594

                       ! Non-Optimized Parameters !

 1\1\GINC-N2174\Freq\RMP2-FC\Aug-CC-pVTZ\H1N1O3\CGAVINH\06-Mar-2022\1\\
 #p freq mp2/aug-cc-pvtz density=current\\title\\0,1\H\O,1,r1\O,2,r2,1,
 a1\N,3,r3,2,a2,1,d1,0\O,4,r4,3,a3,2,d2,0\\r1=0.98537664\r2=1.42673666\
 r3=1.38110764\r4=1.19478846\a1=100.6355057\a2=112.38023235\a3=114.3339
 2022\d1=0.\d2=0.\\Version=ES64L-G16RevB.01\State=1-A'\HF=-279.5062149\
 MP2=-280.4551902\RMSD=4.590e-09\RMSF=1.420e-03\ZeroPoint=0.0234737\The
 rmal=0.0273937\Dipole=-0.1046926,0.,-0.4147679\DipoleDeriv=0.3189317,0
 .,0.0349077,0.,0.2967901,0.,-0.0295564,0.,0.2057829,-0.5218196,0.,0.28

 Normal termination of Gaussian 16 at Sun Mar  6 19:38:17 2022.
