 Gaussian 16, Revision B.01,
 Gaussian 16:  ES64L-G16RevB.01 20-Dec-2017

 ---------------------------------------
 #p freq mp2/aug-cc-pvtz density=current
 ---------------------------------------

 -----
 title
 -----
 Symbolic Z-matrix:
 Charge =  0 Multiplicity = 1

                         Standard orientation:
 ---------------------------------------------------------------------
 Center     Atomic      Atomic             Coordinates (Angstroms)
 Number     Number       Type             X           Y           Z
 ---------------------------------------------------------------------
      1          1           0        1.535549    1.693101    0.000000
      2          8           0        1.444336    0.728428    0.000000
      3          8           0       -0.000000    0.673106    0.000000
      4          7           0       -0.255923   -0.763053   -0.000000
      5          8           0       -1.412348   -0.945501   -0.000000
 ---------------------------------------------------------------------

 SCF Done:  E(RHF) =  -279.502421158     A.U. after   14 cycles
 E2 =    -0.9442716199D+00 EUMP2 =    -0.28044669277814D+03
 E2 =    -0.9442716199D+00 EUMP2 =    -0.28044669277814D+03

 The electronic state is 1-A'.
 Alpha  occ. eigenvalues --  -20.69034 -20.68413 -20.65916 -15.81264  -1.62434
 Alpha  occ. eigenvalues --   -1.49957  -1.25270  -0.94820  -0.77381  -0.75996
 Alpha  occ. eigenvalues --   -0.71269  -0.67941  -0.62137  -0.59070  -0.48350
 Alpha  occ. eigenvalues --   -0.47228
 Alpha virt. eigenvalues --    0.02964   0.07169   0.08617   0.10176   0.13395
 Alpha virt. eigenvalues --    0.13438   0.14413   0.15457   0.17823   0.19409
 Alpha virt. eigenvalues --    0.19977   0.20645   0.22177   0.23746   0.23972

 Mulliken charges:
               1
     1  H    0.249722
     2  O   -0.200487
     3  O   -0.146580
     4  N    0.290914
     5  O   -0.193568
 Sum of Mulliken charges =  -0.00000

 Dipole moment (field-independent basis, Debye):
    X=              0.5065    Y=              1.3694    Z=              0.0000  Tot=              1.4601
 Quadrupole moment (field-independent basis, Debye-Ang):
   XX=            -22.5212   YY=            -18.5810   ZZ=            -21.9970
   XY=              3.2254   XZ=              0.0000   YZ=             -0.0000

  Exact polarizability:  33.767   9.455  30.291   0.000   0.000  17.896
 Approx polarizability:  28.733   5.112  23.542  -0.000   0.000  15.506

 ******    1 imaginary frequencies (negative Signs) ******

                      1                      2                      3
                     A"                     A"                     A'
 Frequencies --   -265.8301               225.4445               339.5058
 Red. masses --      1.1373                10.6698                 8.5581
 Frc consts  --      0.0474                 0.3195                 0.5812
 IR Inten    --    125.0765                 0.6859                 6.1794

                      4                      5                      6
                     A'                     A'                     A'
 Frequencies --    454.5269               790.7536               987.5355
 Red. masses --     12.3922                12.8274                15.6117
 Frc consts  --      1.5084                 4.7258                 8.9703
 IR Inten    --    199.5499               173.4549                18.5349

                      7                      8                      9
                     A'                     A'                     A'
 Frequencies --   1381.9547              1677.8409              3777.7703
 Red. masses --      1.1342                13.0940                 1.0675
 Frc consts  --      1.2763                21.7182                 8.9760
 IR Inten    --    154.0810               139.7768                82.9832

 - Thermochemistry -
 -------------------
 Temperature   298.150 Kelvin.  Pressure   1.00000 Atm.
 Atom     1 has atomic number  1 and mass   1.00783

 Molecular mass:    62.99564 amu.
 Principal axes and moments of inertia in atomic units:
                           1         2         3
     Eigenvalues --    32.70061 358.54291 391.24352
           X            0.80665  -0.59103   0.00000
           Y            0.59103   0.80665   0.00000
           Z            0.00000  -0.00000   1.00000
 This molecule is an asymmetric top.
 Rotational symmetry number  1.
 Rotational temperatures (Kelvin)      2.64869     0.24157     0.22138
 Rotational constants (GHZ):          55.18983     5.03354     4.61283
    1 imaginary frequencies ignored.
 Zero-point vibrational energy      57632.1 (Joules/Mol)
                                   13.77440 (Kcal/Mol)
 Warning -- explicit consideration of   3 degrees of freedom as
           vibrations may cause significant error
 Vibrational temperatures:    324.36   488.47   653.96  1137.72  1420.84
          (Kelvin)           1988.32  2414.04  5435.37

 Zero-point correction=                           0.021951 (Hartree/Particle)
 Thermal correction to Energy=                    0.026069
 Thermal correction to Enthalpy=                  0.027013
 Thermal correction to Gibbs Free Energy=        -0.004172
 Sum of electronic and zero-point Energies=           -280.424742
 Sum of electronic and thermal Energies=              -280.420624
 Sum of electronic and thermal Enthalpies=            -280.419680
 Sum of electronic and thermal Free Energies=         -280.450865

                     E (Thermal)             CV                S
                      KCal/Mol        Cal/Mol-Kelvin    Cal/Mol-Kelvin
 Total                   16.358             11.921             65.634
 Electronic               0.000              0.000              0.000
 Translational            0.889              2.981             38.341
 Rotational               0.889              2.981             23.044
 Vibrational             14.581              5.959              4.250
 Vibration     1          0.650              1.802              1.915
 Vibration     2          0.719              1.597              1.214
 Vibration     3          0.813              1.351              0.782

                       ! Non-Optimized Parameters !

 1\1\GINC-N2228\Freq\RMP2-FC\Aug-CC-pVTZ\H1N1O3\CGAVINH\21-Feb-2022\1\\
 #p freq mp2/aug-cc-pvtz density=current\\title\\0,1\H\O,1,r1\O,2,r2,1,
 a1\N,3,r3,2,a2,1,d1,0\O,4,r4,3,a3,2,d2,0\\r1=0.96897556\r2=1.44539537\
 r3=1.45878406\r4=1.17072885\a1=97.59494903\a2=102.29752444\a3=109.0695
 5123\d1=180.\d2=180.\\Version=ES64L-G16RevB.01\State=1-A'\HF=-279.5024
 212\MP2=-280.4466928\RMSD=3.702e-09\RMSF=1.663e-03\ZeroPoint=0.0219509
 \Thermal=0.0260685\Dipole=-0.1476588,0.,-0.5551349\DipoleDeriv=0.26668
 29,0.,0.0488404,0.,0.3559648,0.,0.0806731,0.,0.2767783,-0.3287821,0.,-

 Normal termination of Gaussian 16 at Mon Feb 21 20:12:29 2022.
