 Gaussian 16, Revision B.01,
 Gaussian 16:  ES64L-G16RevB.01 20-Dec-2017

 ---------------------------------------
 #p freq mp2/aug-cc-pvtz density=current
 ---------------------------------------

 -----
 title
 -----
 Symbolic Z-matrix:
 Charge =  0 Multiplicity = 1

                         Standard orientation:
 ---------------------------------------------------------------------
 Center     Atomic      Atomic             Coordinates (Angstroms)
 Number     Number       Type             X           Y           Z
 ---------------------------------------------------------------------
      1          1           0        1.117790   -0.589822    0.000000
      2          8           0        1.318945    0.374804    0.000000
      3          8           0       -0.000000    0.918829    0.000000
      4          7           0       -0.985961   -0.048301    0.000000
      5          8           0       -0.595953   -1.177642    0.000000
 ---------------------------------------------------------------------

 SCF Done:  E(RHF) =  -279.506349001     A.U. after   14 cycles
 E2 =    -0.9487767246D+00 EUMP2 =    -0.28045512572543D+03
 E2 =    -0.9487767246D+00 EUMP2 =    -0.28045512572543D+03

 The electronic state is 1-A'.
 Alpha  occ. eigenvalues --  -20.72089 -20.68777 -20.66896 -15.82534  -1.64298
 Alpha  occ. eigenvalues --   -1.50661  -1.29424  -0.96069  -0.83334  -0.75871
 Alpha  occ. eigenvalues --   -0.73980  -0.63885  -0.61972  -0.61907  -0.50282
 Alpha  occ. eigenvalues --   -0.49810
 Alpha virt. eigenvalues --    0.03497   0.06086   0.09511   0.10054   0.11974
 Alpha virt. eigenvalues --    0.12267   0.14897   0.15187   0.17769   0.18037
 Alpha virt. eigenvalues --    0.18957   0.21110   0.21673   0.24260   0.24635

 Mulliken charges:
               1
     1  H    0.278380
     2  O   -0.274157
     3  O    0.037713
     4  N    0.154435
     5  O   -0.196371
 Sum of Mulliken charges =  -0.00000

 Dipole moment (field-independent basis, Debye):
    X=              0.0770    Y=             -1.0956    Z=              0.0000  Tot=              1.0983
 Quadrupole moment (field-independent basis, Debye-Ang):
   XX=            -23.4013   YY=            -22.9502   ZZ=            -21.9374
   XY=             -1.9650   XZ=              0.0000   YZ=              0.0000

  Exact polarizability:  30.958   4.226  29.993   0.000   0.000  17.641
 Approx polarizability:  24.512   0.632  27.797  -0.000  -0.000  15.526

                      1                      2                      3
                     A"                     A'                     A"
 Frequencies --    351.4832               382.1935               516.9650
 Red. masses --      1.5667                 7.1238                 2.8805
 Frc consts  --      0.1140                 0.6131                 0.4536
 IR Inten    --     62.7464                 7.6267                25.7468

                      4                      5                      6
                     A'                     A'                     A'
 Frequencies --    703.5850               839.0500               968.0716
 Red. masses --     13.1867                12.3977                 9.9555
 Frc consts  --      3.8461                 5.1424                 5.4970
 IR Inten    --    215.6491                34.2733                13.5480

                      7                      8                      9
                     A'                     A'                     A'
 Frequencies --   1439.4482              1569.0923              3489.7818
 Red. masses --      1.3032                 6.3491                 1.0640
 Frc consts  --      1.5909                 9.2100                 7.6350
 IR Inten    --     78.9823               152.4881                40.9838

 - Thermochemistry -
 -------------------
 Temperature   298.150 Kelvin.  Pressure   1.00000 Atm.
 Atom     1 has atomic number  1 and mass   1.00783

 Molecular mass:    62.99564 amu.
 Principal axes and moments of inertia in atomic units:
                           1         2         3
     Eigenvalues --    84.06629 225.43334 309.49962
           X            0.79177  -0.61082   0.00000
           Y            0.61082   0.79177   0.00000
           Z            0.00000   0.00000   1.00000
 This molecule is an asymmetric top.
 Rotational symmetry number  1.
 Rotational temperatures (Kelvin)      1.03031     0.38421     0.27985
 Rotational constants (GHZ):          21.46807     8.00565     5.83116
 Zero-point vibrational energy      61366.5 (Joules/Mol)
                                   14.66694 (Kcal/Mol)
 Warning -- explicit consideration of   3 degrees of freedom as
           vibrations may cause significant error
 Vibrational temperatures:    505.71   549.89   743.80  1012.30  1207.21
          (Kelvin)           1392.84  2071.04  2257.57  5021.02

 Zero-point correction=                           0.023373 (Hartree/Particle)
 Thermal correction to Energy=                    0.027335
 Thermal correction to Enthalpy=                  0.028279
 Thermal correction to Gibbs Free Energy=        -0.002626
 Sum of electronic and zero-point Energies=           -280.431752
 Sum of electronic and thermal Energies=              -280.427791
 Sum of electronic and thermal Enthalpies=            -280.426846
 Sum of electronic and thermal Free Energies=         -280.457752

                     E (Thermal)             CV                S
                      KCal/Mol        Cal/Mol-Kelvin    Cal/Mol-Kelvin
 Total                   17.153             12.230             65.045
 Electronic               0.000              0.000              0.000
 Translational            0.889              2.981             38.341
 Rotational               0.889              2.981             23.288
 Vibrational             15.376              6.268              3.417
 Vibration     1          0.728              1.572              1.160
 Vibration     2          0.752              1.508              1.030
 Vibration     3          0.872              1.212              0.617

                       ! Non-Optimized Parameters !

 1\1\GINC-N2218\Freq\RMP2-FC\Aug-CC-pVTZ\H1N1O3\CGAVINH\06-Mar-2022\1\\
 #p freq mp2/aug-cc-pvtz density=current\\title\\0,1\H\O,1,r1\O,2,r2,1,
 a1\N,3,r3,2,a2,1,d1,0\O,4,r4,3,a3,2,d2,0\\r1=0.98537664\r2=1.42673666\
 r3=1.38110764\r4=1.19478846\a1=100.6355057\a2=113.13777052\a3=115.3956
 6758\d1=0.\d2=0.\\Version=ES64L-G16RevB.01\State=1-A'\HF=-279.506349\M
 P2=-280.4551257\RMSD=4.315e-09\RMSF=2.379e-03\ZeroPoint=0.0233732\Ther
 mal=0.0273351\Dipole=-0.1176647,0.,-0.4157689\DipoleDeriv=0.314412,0.,
 0.0393636,0.,0.2984795,0.,-0.0215312,0.,0.1957851,-0.5308394,0.,0.2795

 Normal termination of Gaussian 16 at Sun Mar  6 19:43:21 2022.
