 Gaussian 16, Revision B.01,
 Gaussian 16:  ES64L-G16RevB.01 20-Dec-2017

 ---------------------------------------
 #p freq mp2/aug-cc-pvtz density=current
 ---------------------------------------

 -----
 title
 -----
 Symbolic Z-matrix:
 Charge =  0 Multiplicity = 1

                         Standard orientation:
 ---------------------------------------------------------------------
 Center     Atomic      Atomic             Coordinates (Angstroms)
 Number     Number       Type             X           Y           Z
 ---------------------------------------------------------------------
      1          1           0       -0.539972   -1.138596    0.016482
      2          8           0       -1.276861   -0.484574    0.001715
      3          8           0       -0.542937    0.738893   -0.006079
      4          7           0        0.825262    0.551107    0.009018
      5          8           0        1.165190   -0.594212   -0.005587
 ---------------------------------------------------------------------

 SCF Done:  E(RHF) =  -279.506397610     A.U. after   14 cycles
 E2 =    -0.9487970696D+00 EUMP2 =    -0.28045519467983D+03
 E2 =    -0.9487970696D+00 EUMP2 =    -0.28045519467983D+03

 The electronic state is 1-A.
 Alpha  occ. eigenvalues --  -20.71978 -20.68726 -20.66830 -15.82601  -1.64428
 Alpha  occ. eigenvalues --   -1.50516  -1.29377  -0.96035  -0.83467  -0.75893
 Alpha  occ. eigenvalues --   -0.73995  -0.63740  -0.61892  -0.61822  -0.50473
 Alpha  occ. eigenvalues --   -0.49745
 Alpha virt. eigenvalues --    0.03506   0.06022   0.09512   0.10038   0.11955
 Alpha virt. eigenvalues --    0.12273   0.14936   0.15204   0.17748   0.18039
 Alpha virt. eigenvalues --    0.18974   0.21105   0.21673   0.24253   0.24634

 Mulliken charges:
               1
     1  H    0.277977
     2  O   -0.274168
     3  O    0.037797
     4  N    0.154128
     5  O   -0.195734
 Sum of Mulliken charges =  -0.00000

 Dipole moment (field-independent basis, Debye):
    X=              0.6061    Y=             -0.9125    Z=              0.0236  Tot=              1.0957
 Quadrupole moment (field-independent basis, Debye-Ang):
   XX=            -25.1097   YY=            -21.2116   ZZ=            -21.9328
   XY=              0.3821   XZ=             -0.0154   YZ=             -0.0608

  Exact polarizability:  34.499  -0.729  26.275   0.020  -0.004  17.621
 Approx polarizability:  26.142  -1.634  26.076   0.010   0.004  15.517

                      1                      2                      3
                      A                      A                      A
 Frequencies --    353.1294               396.8238               523.0965
 Red. masses --      1.5531                 7.0808                 2.9211
 Frc consts  --      0.1141                 0.6569                 0.4709
 IR Inten    --     62.9772                 7.7789                25.4538

                      4                      5                      6
                      A                      A                      A
 Frequencies --    711.4507               836.9582               970.9886
 Red. masses --     13.3297                12.3734                 9.7692
 Frc consts  --      3.9752                 5.1068                 5.4267
 IR Inten    --    217.2320                30.7337                12.7574

                      7                      8                      9
                      A                      A                      A
 Frequencies --   1434.1020              1570.3381              3487.6680
 Red. masses --      1.3056                 6.3994                 1.0638
 Frc consts  --      1.5821                 9.2977                 7.6237
 IR Inten    --     79.9323               150.2105                42.6773

 - Thermochemistry -
 -------------------
 Temperature   298.150 Kelvin.  Pressure   1.00000 Atm.
 Atom     1 has atomic number  1 and mass   1.00783

 Molecular mass:    62.99564 amu.
 Principal axes and moments of inertia in atomic units:
                           1         2         3
     Eigenvalues --    84.51973 222.64465 307.14631
           X            0.99987   0.01593  -0.00015
           Y           -0.01593   0.99987  -0.00080
           Z            0.00014   0.00081   1.00000
 This molecule is an asymmetric top.
 Rotational symmetry number  1.
 Rotational temperatures (Kelvin)      1.02478     0.38902     0.28200
 Rotational constants (GHZ):          21.35290     8.10593     5.87584
 Zero-point vibrational energy      61515.3 (Joules/Mol)
                                   14.70251 (Kcal/Mol)
 Warning -- explicit consideration of   3 degrees of freedom as
           vibrations may cause significant error
 Vibrational temperatures:    508.07   570.94   752.62  1023.62  1204.20
          (Kelvin)           1397.04  2063.35  2259.37  5017.98

 Zero-point correction=                           0.023430 (Hartree/Particle)
 Thermal correction to Energy=                    0.027368
 Thermal correction to Enthalpy=                  0.028312
 Thermal correction to Gibbs Free Energy=        -0.002545
 Sum of electronic and zero-point Energies=           -280.431765
 Sum of electronic and thermal Energies=              -280.427826
 Sum of electronic and thermal Enthalpies=            -280.426882
 Sum of electronic and thermal Free Energies=         -280.457740

                     E (Thermal)             CV                S
                      KCal/Mol        Cal/Mol-Kelvin    Cal/Mol-Kelvin
 Total                   17.174             12.168             64.945
 Electronic               0.000              0.000              0.000
 Translational            0.889              2.981             38.341
 Rotational               0.889              2.981             23.273
 Vibrational             15.396              6.207              3.331
 Vibration     1          0.729              1.569              1.152
 Vibration     2          0.763              1.477              0.974
 Vibration     3          0.878              1.199              0.603

                       ! Non-Optimized Parameters !

 1\1\GINC-N2174\Freq\RMP2-FC\Aug-CC-pVTZ\H1N1O3\CGAVINH\06-Mar-2022\1\\
 #p freq mp2/aug-cc-pvtz density=current\\title\\0,1\H\O,1,r1\O,2,r2,1,
 a1\N,3,r3,2,a2,1,d1,0\O,4,r4,3,a3,2,d2,0\\r1=0.98537664\r2=1.42673666\
 r3=1.38110764\r4=1.19478846\a1=100.6355057\a2=113.13777052\a3=114.3339
 2022\d1=0.\d2=1.66010881\\Version=ES64L-G16RevB.01\State=1-A\HF=-279.5
 063976\MP2=-280.4551947\RMSD=6.895e-09\RMSF=8.858e-04\ZeroPoint=0.0234
 299\Thermal=0.0273682\Dipole=-0.1102295,-0.0027252,-0.4167476\DipoleDe
 riv=0.3168255,0.0012641,0.0379627,0.0016106,0.298094,-0.0001666,-0.024

 Normal termination of Gaussian 16 at Sun Mar  6 20:00:35 2022.
