 Gaussian 16, Revision B.01,
 Gaussian 16:  ES64L-G16RevB.01 20-Dec-2017

 ---------------------------------------
 #p freq mp2/aug-cc-pvtz density=current
 ---------------------------------------

 -----
 title
 -----
 Symbolic Z-matrix:
 Charge =  0 Multiplicity = 1

                         Standard orientation:
 ---------------------------------------------------------------------
 Center     Atomic      Atomic             Coordinates (Angstroms)
 Number     Number       Type             X           Y           Z
 ---------------------------------------------------------------------
      1          1           0        1.527658    1.696484   -0.000000
      2          8           0        1.438674    0.731603   -0.000000
      3          8           0        0.000000    0.673168    0.000000
      4          7           0       -0.252603   -0.763580   -0.000000
      5          8           0       -1.408604   -0.948698    0.000000
 ---------------------------------------------------------------------

 SCF Done:  E(RHF) =  -279.502799930     A.U. after   14 cycles
 E2 =    -0.9438245412D+00 EUMP2 =    -0.28044662447169D+03
 E2 =    -0.9438245412D+00 EUMP2 =    -0.28044662447169D+03

 The electronic state is 1-A'.
 Alpha  occ. eigenvalues --  -20.69002 -20.68402 -20.65868 -15.81252  -1.62453
 Alpha  occ. eigenvalues --   -1.50183  -1.25170  -0.94828  -0.77443  -0.76042
 Alpha  occ. eigenvalues --   -0.71323  -0.67944  -0.62190  -0.59141  -0.48247
 Alpha  occ. eigenvalues --   -0.47214
 Alpha virt. eigenvalues --    0.02965   0.07169   0.08629   0.10178   0.13394
 Alpha virt. eigenvalues --    0.13461   0.14416   0.15460   0.17822   0.19403
 Alpha virt. eigenvalues --    0.19975   0.20649   0.22215   0.23750   0.24241

 Mulliken charges:
               1
     1  H    0.249409
     2  O   -0.199862
     3  O   -0.146203
     4  N    0.290410
     5  O   -0.193754
 Sum of Mulliken charges =  -0.00000

 Dipole moment (field-independent basis, Debye):
    X=              0.5054    Y=              1.3745    Z=              0.0000  Tot=              1.4645
 Quadrupole moment (field-independent basis, Debye-Ang):
   XX=            -22.5516   YY=            -18.5610   ZZ=            -21.9892
   XY=              3.2073   XZ=              0.0000   YZ=             -0.0000

  Exact polarizability:  33.630   9.445  30.313  -0.000  -0.000  17.878
 Approx polarizability:  28.576   5.115  23.555  -0.000  -0.000  15.497

 ******    1 imaginary frequencies (negative Signs) ******

                      1                      2                      3
                     A"                     A"                     A'
 Frequencies --   -263.9210               223.1605               338.2128
 Red. masses --      1.1362                10.7665                 8.5278
 Frc consts  --      0.0466                 0.3159                 0.5747
 IR Inten    --    125.2799                 0.6317                 7.2401

                      4                      5                      6
                     A'                     A'                     A'
 Frequencies --    456.2248               793.4950               999.8953
 Red. masses --     12.4326                12.7905                15.7041
 Frc consts  --      1.5246                 4.7449                 9.2506
 IR Inten    --    199.2615               174.5298                16.6872

                      7                      8                      9
                     A'                     A'                     A'
 Frequencies --   1388.1853              1678.1415              3777.2169
 Red. masses --      1.1348                13.0227                 1.0674
 Frc consts  --      1.2885                21.6077                 8.9730
 IR Inten    --    154.7262               139.3392                83.2288

 - Thermochemistry -
 -------------------
 Temperature   298.150 Kelvin.  Pressure   1.00000 Atm.
 Atom     1 has atomic number  1 and mass   1.00783

 Molecular mass:    62.99564 amu.
 Principal axes and moments of inertia in atomic units:
                           1         2         3
     Eigenvalues --    32.61941 357.61464 390.23405
           X            0.80460  -0.59381   0.00000
           Y            0.59381   0.80460   0.00000
           Z           -0.00000   0.00000   1.00000
 This molecule is an asymmetric top.
 Rotational symmetry number  1.
 Rotational temperatures (Kelvin)      2.65529     0.24220     0.22195
 Rotational constants (GHZ):          55.32722     5.04661     4.62477
    1 imaginary frequencies ignored.
 Zero-point vibrational energy      57746.9 (Joules/Mol)
                                   13.80185 (Kcal/Mol)
 Warning -- explicit consideration of   3 degrees of freedom as
           vibrations may cause significant error
 Vibrational temperatures:    321.08   486.61   656.41  1141.66  1438.63
          (Kelvin)           1997.29  2414.47  5434.57

 Zero-point correction=                           0.021995 (Hartree/Particle)
 Thermal correction to Energy=                    0.026113
 Thermal correction to Enthalpy=                  0.027057
 Thermal correction to Gibbs Free Energy=        -0.004130
 Sum of electronic and zero-point Energies=           -280.424630
 Sum of electronic and thermal Energies=              -280.420512
 Sum of electronic and thermal Enthalpies=            -280.419567
 Sum of electronic and thermal Free Energies=         -280.450754

                     E (Thermal)             CV                S
                      KCal/Mol        Cal/Mol-Kelvin    Cal/Mol-Kelvin
 Total                   16.386             11.902             65.638
 Electronic               0.000              0.000              0.000
 Translational            0.889              2.981             38.341
 Rotational               0.889              2.981             23.036
 Vibrational             14.609              5.941              4.262
 Vibration     1          0.649              1.806              1.933
 Vibration     2          0.719              1.599              1.221
 Vibration     3          0.814              1.347              0.777

                       ! Non-Optimized Parameters !

 1\1\GINC-N2124\Freq\RMP2-FC\Aug-CC-pVTZ\H1N1O3\CGAVINH\21-Feb-2022\1\\
 #p freq mp2/aug-cc-pvtz density=current\\title\\0,1\H\O,1,r1\O,2,r2,1,
 a1\N,3,r3,2,a2,1,d1,0\O,4,r4,3,a3,2,d2,0\\r1=0.96897556\r2=1.43986064\
 r3=1.45878406\r4=1.17072885\a1=97.59494903\a2=102.29752444\a3=109.0695
 5123\d1=180.\d2=180.\\Version=ES64L-G16RevB.01\State=1-A'\HF=-279.5027
 999\MP2=-280.4466245\RMSD=3.653e-09\RMSF=2.713e-03\ZeroPoint=0.0219946
 \Thermal=0.0261129\Dipole=-0.1483401,0.,-0.5567552\DipoleDeriv=0.26690
 24,0.,0.0491577,0.,0.3562048,0.,0.0797765,0.,0.2774556,-0.3293631,0.,-

 Normal termination of Gaussian 16 at Mon Feb 21 20:15:49 2022.
