 Gaussian 16, Revision B.01,
 Gaussian 16:  ES64L-G16RevB.01 20-Dec-2017

 ---------------------------------------
 #p freq mp2/aug-cc-pvtz density=current
 ---------------------------------------

 -----
 title
 -----
 Symbolic Z-matrix:
 Charge =  0 Multiplicity = 1

                         Standard orientation:
 ---------------------------------------------------------------------
 Center     Atomic      Atomic             Coordinates (Angstroms)
 Number     Number       Type             X           Y           Z
 ---------------------------------------------------------------------
      1          1           0        1.139489   -0.605341    0.000000
      2          8           0        1.315228    0.364237    0.000000
      3          8           0       -0.000000    0.917186    0.000000
      4          7           0       -0.992491   -0.043241    0.000000
      5          8           0       -0.589234   -1.167920    0.000000
 ---------------------------------------------------------------------

 SCF Done:  E(RHF) =  -279.506671787     A.U. after   14 cycles
 E2 =    -0.9484328680D+00 EUMP2 =    -0.28045510465516D+03
 E2 =    -0.9484328680D+00 EUMP2 =    -0.28045510465516D+03

 The electronic state is 1-A'.
 Alpha  occ. eigenvalues --  -20.72006 -20.68615 -20.66779 -15.82511  -1.64284
 Alpha  occ. eigenvalues --   -1.50410  -1.29362  -0.96041  -0.83308  -0.75824
 Alpha  occ. eigenvalues --   -0.73928  -0.63684  -0.61831  -0.61758  -0.50350
 Alpha  occ. eigenvalues --   -0.49731
 Alpha virt. eigenvalues --    0.03471   0.06104   0.09522   0.10044   0.12008
 Alpha virt. eigenvalues --    0.12259   0.14922   0.15114   0.17771   0.18093
 Alpha virt. eigenvalues --    0.18995   0.21126   0.21643   0.24273   0.24640

 Mulliken charges:
               1
     1  H    0.282680
     2  O   -0.273643
     3  O    0.037164
     4  N    0.151820
     5  O   -0.198020
 Sum of Mulliken charges =  -0.00000

 Dipole moment (field-independent basis, Debye):
    X=              0.0976    Y=             -1.1100    Z=              0.0000  Tot=              1.1143
 Quadrupole moment (field-independent basis, Debye-Ang):
   XX=            -23.3029   YY=            -22.9351   ZZ=            -21.9406
   XY=             -2.0587   XZ=              0.0000   YZ=              0.0000

  Exact polarizability:  30.949   4.064  29.889   0.000   0.000  17.651
 Approx polarizability:  24.510   0.430  27.705  -0.000  -0.000  15.534

                      1                      2                      3
                     A"                     A'                     A"
 Frequencies --    327.4447               396.3916               524.4527
 Red. masses --      1.5402                 6.9128                 2.9916
 Frc consts  --      0.0973                 0.6400                 0.4848
 IR Inten    --     65.6421                 7.5763                25.2823

                      4                      5                      6
                     A'                     A'                     A'
 Frequencies --    709.4732               832.6822               968.2671
 Red. masses --     13.2301                11.5688                 9.7538
 Frc consts  --      3.9236                 4.7260                 5.3878
 IR Inten    --    218.4680                30.1370                12.7457

                      7                      8                      9
                     A'                     A'                     A'
 Frequencies --   1413.5064              1565.6897              3498.0038
 Red. masses --      1.2734                 7.8909                 1.0640
 Frc consts  --      1.4990                11.3969                 7.6708
 IR Inten    --     78.2988               149.4995                40.8283

 - Thermochemistry -
 -------------------
 Temperature   298.150 Kelvin.  Pressure   1.00000 Atm.
 Atom     1 has atomic number  1 and mass   1.00783

 Molecular mass:    62.99564 amu.
 Principal axes and moments of inertia in atomic units:
                           1         2         3
     Eigenvalues --    84.73410 222.69278 307.42687
           X            0.79758  -0.60321   0.00000
           Y            0.60321   0.79758   0.00000
           Z            0.00000   0.00000   1.00000
 This molecule is an asymmetric top.
 Rotational symmetry number  1.
 Rotational temperatures (Kelvin)      1.02218     0.38894     0.28174
 Rotational constants (GHZ):          21.29888     8.10417     5.87047
 Zero-point vibrational energy      61224.3 (Joules/Mol)
                                   14.63297 (Kcal/Mol)
 Warning -- explicit consideration of   3 degrees of freedom as
           vibrations may cause significant error
 Vibrational temperatures:    471.12   570.32   754.57  1020.77  1198.04
          (Kelvin)           1393.12  2033.72  2252.68  5032.85

 Zero-point correction=                           0.023319 (Hartree/Particle)
 Thermal correction to Energy=                    0.027289
 Thermal correction to Enthalpy=                  0.028233
 Thermal correction to Gibbs Free Energy=        -0.002686
 Sum of electronic and zero-point Energies=           -280.431786
 Sum of electronic and thermal Energies=              -280.427816
 Sum of electronic and thermal Enthalpies=            -280.426872
 Sum of electronic and thermal Free Energies=         -280.457791

                     E (Thermal)             CV                S
                      KCal/Mol        Cal/Mol-Kelvin    Cal/Mol-Kelvin
 Total                   17.124             12.239             65.075
 Electronic               0.000              0.000              0.000
 Translational            0.889              2.981             38.341
 Rotational               0.889              2.981             23.277
 Vibrational             15.347              6.278              3.458
 Vibration     1          0.711              1.621              1.273
 Vibration     2          0.763              1.478              0.976
 Vibration     3          0.879              1.196              0.600

                       ! Non-Optimized Parameters !

 1\1\GINC-N2219\Freq\RMP2-FC\Aug-CC-pVTZ\H1N1O3\CGAVINH\06-Mar-2022\1\\
 #p freq mp2/aug-cc-pvtz density=current\\title\\0,1\H\O,1,r1\O,2,r2,1,
 a1\N,3,r3,2,a2,1,d1,0\O,4,r4,3,a3,2,d2,0\\r1=0.98537664\r2=1.42673666\
 r3=1.38110764\r4=1.19478846\a1=102.52935733\a2=113.13777052\a3=114.333
 92022\d1=0.\d2=0.\\Version=ES64L-G16RevB.01\State=1-A'\HF=-279.5066718
 \MP2=-280.4551047\RMSD=4.352e-09\RMSF=1.806e-03\ZeroPoint=0.0233191\Th
 ermal=0.0272889\Dipole=-0.1156727,0.,-0.4228516\DipoleDeriv=0.3122576,
 0.,0.0448287,0.,0.3025126,0.,-0.0078963,0.,0.196391,-0.5305105,0.,0.26

 Normal termination of Gaussian 16 at Sun Mar  6 19:25:42 2022.
