 Gaussian 16, Revision B.01,
 Gaussian 16:  ES64L-G16RevB.01 20-Dec-2017

 ---------------------------------------
 #p freq mp2/aug-cc-pvtz density=current
 ---------------------------------------

 -----
 title
 -----
 Symbolic Z-matrix:
 Charge =  0 Multiplicity = 1

                         Standard orientation:
 ---------------------------------------------------------------------
 Center     Atomic      Atomic             Coordinates (Angstroms)
 Number     Number       Type             X           Y           Z
 ---------------------------------------------------------------------
      1          1           0        1.546500    1.700818    0.000000
      2          8           0        1.453930    0.736275    0.000000
      3          8           0        0.000000    0.682634    0.000000
      4          7           0       -0.261633   -0.773702   -0.000000
      5          8           0       -1.418314   -0.954522   -0.000000
 ---------------------------------------------------------------------

 SCF Done:  E(RHF) =  -279.499567698     A.U. after   14 cycles
 E2 =    -0.9470770647D+00 EUMP2 =    -0.28044664476266D+03
 E2 =    -0.9470770647D+00 EUMP2 =    -0.28044664476266D+03

 The electronic state is 1-A'.
 Alpha  occ. eigenvalues --  -20.68922 -20.68736 -20.65743 -15.81620  -1.62328
 Alpha  occ. eigenvalues --   -1.49270  -1.24818  -0.94974  -0.77115  -0.75685
 Alpha  occ. eigenvalues --   -0.70843  -0.68043  -0.62146  -0.58829  -0.48300
 Alpha  occ. eigenvalues --   -0.47149
 Alpha virt. eigenvalues --    0.03020   0.06899   0.08554   0.10147   0.13384
 Alpha virt. eigenvalues --    0.13409   0.14451   0.15494   0.17871   0.19407
 Alpha virt. eigenvalues --    0.19970   0.20330   0.22136   0.23632   0.23714

 Mulliken charges:
               1
     1  H    0.250057
     2  O   -0.203021
     3  O   -0.160635
     4  N    0.297754
     5  O   -0.184155
 Sum of Mulliken charges =  -0.00000

 Dipole moment (field-independent basis, Debye):
    X=              0.4140    Y=              1.2395    Z=              0.0000  Tot=              1.3068
 Quadrupole moment (field-independent basis, Debye-Ang):
   XX=            -22.4335   YY=            -18.5264   ZZ=            -22.0401
   XY=              3.2953   XZ=             -0.0000   YZ=             -0.0000

  Exact polarizability:  33.991   9.589  30.688   0.000   0.000  17.999
 Approx polarizability:  29.108   5.249  24.003   0.000   0.000  15.554

 ******    1 imaginary frequencies (negative Signs) ******

                      1                      2                      3
                     A"                     A"                     A'
 Frequencies --   -274.8839               237.4946               334.1149
 Red. masses --      1.1344                10.7886                 8.5403
 Frc consts  --      0.0505                 0.3585                 0.5617
 IR Inten    --    125.2178                 0.6875                 9.0283

                      4                      5                      6
                     A'                     A'                     A'
 Frequencies --    412.0282               773.1767               963.9378
 Red. masses --     12.4570                13.1110                15.4958
 Frc consts  --      1.2460                 4.6179                 8.4832
 IR Inten    --    212.5885               156.0434                20.5642

                      7                      8                      9
                     A'                     A'                     A'
 Frequencies --   1367.3576              1668.1710              3778.2241
 Red. masses --      1.1306                13.2970                 1.0676
 Frc consts  --      1.2455                21.8014                 8.9788
 IR Inten    --    149.3059               150.8726                82.8528

 - Thermochemistry -
 -------------------
 Temperature   298.150 Kelvin.  Pressure   1.00000 Atm.
 Atom     1 has atomic number  1 and mass   1.00783

 Molecular mass:    62.99564 amu.
 Principal axes and moments of inertia in atomic units:
                           1         2         3
     Eigenvalues --    33.37032 363.97784 397.34816
           X            0.80487  -0.59345   0.00000
           Y            0.59345   0.80487   0.00000
           Z            0.00000  -0.00000   1.00000
 This molecule is an asymmetric top.
 Rotational symmetry number  1.
 Rotational temperatures (Kelvin)      2.59554     0.23796     0.21798
 Rotational constants (GHZ):          54.08223     4.95838     4.54196
    1 imaginary frequencies ignored.
 Zero-point vibrational energy      57029.0 (Joules/Mol)
                                   13.63026 (Kcal/Mol)
 Warning -- explicit consideration of   3 degrees of freedom as
           vibrations may cause significant error
 Vibrational temperatures:    341.70   480.72   592.82  1112.43  1386.89
          (Kelvin)           1967.32  2400.13  5436.02

 Zero-point correction=                           0.021721 (Hartree/Particle)
 Thermal correction to Energy=                    0.025875
 Thermal correction to Enthalpy=                  0.026819
 Thermal correction to Gibbs Free Energy=        -0.004435
 Sum of electronic and zero-point Energies=           -280.424924
 Sum of electronic and thermal Energies=              -280.420770
 Sum of electronic and thermal Enthalpies=            -280.419826
 Sum of electronic and thermal Free Energies=         -280.451080

                     E (Thermal)             CV                S
                      KCal/Mol        Cal/Mol-Kelvin    Cal/Mol-Kelvin
 Total                   16.237             12.070             65.780
 Electronic               0.000              0.000              0.000
 Translational            0.889              2.981             38.341
 Rotational               0.889              2.981             23.094
 Vibrational             14.459              6.108              4.346
 Vibration     1          0.656              1.783              1.822
 Vibration     2          0.716              1.607              1.240
 Vibration     3          0.776              1.444              0.919

                       ! Non-Optimized Parameters !

 1\1\GINC-N2110\Freq\RMP2-FC\Aug-CC-pVTZ\H1N1O3\CGAVINH\21-Feb-2022\1\\
 #p freq mp2/aug-cc-pvtz density=current\\title\\0,1\H\O,1,r1\O,2,r2,1,
 a1\N,3,r3,2,a2,1,d1,0\O,4,r4,3,a3,2,d2,0\\r1=0.96897556\r2=1.45491931\
 r3=1.47965099\r4=1.17072885\a1=97.59494903\a2=102.29752444\a3=109.0695
 5123\d1=180.\d2=180.\\Version=ES64L-G16RevB.01\State=1-A'\HF=-279.4995
 677\MP2=-280.4466448\RMSD=4.098e-09\RMSF=2.103e-03\ZeroPoint=0.0217212
 \Thermal=0.0258748\Dipole=-0.1155658,0.,-0.5009887\DipoleDeriv=0.26455
 07,0.,0.0463119,0.,0.3549345,0.,0.0821277,0.,0.2756511,-0.3320203,0.,-

 Normal termination of Gaussian 16 at Mon Feb 21 20:19:43 2022.
