 Gaussian 16, Revision B.01,
 Gaussian 16:  ES64L-G16RevB.01 20-Dec-2017

 ---------------------------------------
 #p freq mp2/aug-cc-pvtz density=current
 ---------------------------------------

 -----
 title
 -----
 Symbolic Z-matrix:
 Charge =  0 Multiplicity = 1

                         Standard orientation:
 ---------------------------------------------------------------------
 Center     Atomic      Atomic             Coordinates (Angstroms)
 Number     Number       Type             X           Y           Z
 ---------------------------------------------------------------------
      1          1           0        1.118853   -0.585136   -0.000000
      2          8           0        1.319328    0.379632    0.000000
      3          8           0       -0.000000    0.922727    0.000000
      4          7           0       -0.997783   -0.057379   -0.000000
      5          8           0       -0.586124   -1.179010   -0.000000
 ---------------------------------------------------------------------

 SCF Done:  E(RHF) =  -279.504814527     A.U. after   14 cycles
 E2 =    -0.9503096394D+00 EUMP2 =    -0.28045512416654D+03
 E2 =    -0.9503096394D+00 EUMP2 =    -0.28045512416654D+03

 The electronic state is 1-A'.
 Alpha  occ. eigenvalues --  -20.71690 -20.69130 -20.66726 -15.82817  -1.64029
 Alpha  occ. eigenvalues --   -1.50494  -1.28753  -0.96137  -0.83277  -0.75690
 Alpha  occ. eigenvalues --   -0.73610  -0.63694  -0.61999  -0.61912  -0.50430
 Alpha  occ. eigenvalues --   -0.49578
 Alpha virt. eigenvalues --    0.03515   0.05770   0.09503   0.10033   0.11972
 Alpha virt. eigenvalues --    0.12221   0.14973   0.15249   0.17764   0.18004
 Alpha virt. eigenvalues --    0.18989   0.21084   0.21677   0.24201   0.24628

 Mulliken charges:
               1
     1  H    0.277672
     2  O   -0.271878
     3  O    0.024146
     4  N    0.160209
     5  O   -0.190148
 Sum of Mulliken charges =   0.00000

 Dipole moment (field-independent basis, Debye):
    X=              0.0079    Y=             -1.1759    Z=             -0.0000  Tot=              1.1759
 Quadrupole moment (field-independent basis, Debye-Ang):
   XX=            -23.3180   YY=            -22.9789   ZZ=            -21.9617
   XY=             -1.9371   XZ=             -0.0000   YZ=             -0.0000

  Exact polarizability:  31.010   4.265  30.112  -0.000   0.000  17.678
 Approx polarizability:  24.709   0.606  27.938   0.000   0.000  15.544

                      1                      2                      3
                     A"                     A'                     A"
 Frequencies --    345.3212               382.6790               519.5045
 Red. masses --      1.5134                 7.2075                 3.0756
 Frc consts  --      0.1063                 0.6219                 0.4891
 IR Inten    --     63.9535                 9.2079                24.0661

                      4                      5                      6
                     A'                     A'                     A'
 Frequencies --    650.3502               835.1457               966.6478
 Red. masses --     13.1825                12.1532                10.0362
 Frc consts  --      3.2851                 4.9942                 5.5253
 IR Inten    --    232.3124                28.6182                11.4807

                      7                      8                      9
                     A'                     A'                     A'
 Frequencies --   1434.9253              1561.5221              3489.4933
 Red. masses --      1.3176                 5.9975                 1.0640
 Frc consts  --      1.5984                 8.6162                 7.6333
 IR Inten    --     78.9411               150.0377                39.7508

 - Thermochemistry -
 -------------------
 Temperature   298.150 Kelvin.  Pressure   1.00000 Atm.
 Atom     1 has atomic number  1 and mass   1.00783

 Molecular mass:    62.99564 amu.
 Principal axes and moments of inertia in atomic units:
                           1         2         3
     Eigenvalues --    84.55518 226.35038 310.90555
           X            0.79096  -0.61187   0.00000
           Y            0.61187   0.79096   0.00000
           Z            0.00000  -0.00000   1.00000
 This molecule is an asymmetric top.
 Rotational symmetry number  1.
 Rotational temperatures (Kelvin)      1.02435     0.38265     0.27859
 Rotational constants (GHZ):          21.34395     7.97322     5.80479
 Zero-point vibrational energy      60923.4 (Joules/Mol)
                                   14.56103 (Kcal/Mol)
 Warning -- explicit consideration of   3 degrees of freedom as
           vibrations may cause significant error
 Vibrational temperatures:    496.84   550.59   747.45   935.71  1201.59
          (Kelvin)           1390.79  2064.54  2246.68  5020.60

 Zero-point correction=                           0.023204 (Hartree/Particle)
 Thermal correction to Energy=                    0.027195
 Thermal correction to Enthalpy=                  0.028140
 Thermal correction to Gibbs Free Energy=        -0.002816
 Sum of electronic and zero-point Energies=           -280.431920
 Sum of electronic and thermal Energies=              -280.427929
 Sum of electronic and thermal Enthalpies=            -280.426985
 Sum of electronic and thermal Free Energies=         -280.457941

                     E (Thermal)             CV                S
                      KCal/Mol        Cal/Mol-Kelvin    Cal/Mol-Kelvin
 Total                   17.065             12.351             65.153
 Electronic               0.000              0.000              0.000
 Translational            0.889              2.981             38.341
 Rotational               0.889              2.981             23.302
 Vibrational             15.288              6.390              3.510
 Vibration     1          0.724              1.585              1.187
 Vibration     2          0.752              1.507              1.029
 Vibration     3          0.874              1.207              0.611

                       ! Non-Optimized Parameters !

 1\1\GINC-N2218\Freq\RMP2-FC\Aug-CC-pVTZ\H1N1O3\CGAVINH\06-Mar-2022\1\\
 #p freq mp2/aug-cc-pvtz density=current\\title\\0,1\H\O,1,r1\O,2,r2,1,
 a1\N,3,r3,2,a2,1,d1,0\O,4,r4,3,a3,2,d2,0\\r1=0.98537664\r2=1.42673666\
 r3=1.39863445\r4=1.19478846\a1=100.6355057\a2=113.13777052\a3=114.3339
 2022\d1=0.\d2=0.\\Version=ES64L-G16RevB.01\State=1-A'\HF=-279.5048145\
 MP2=-280.4551242\RMSD=4.830e-09\RMSF=2.225e-03\ZeroPoint=0.0232045\The
 rmal=0.0271955\Dipole=-0.0971684,0.,-0.4523345\DipoleDeriv=0.3127573,0
 .,0.0391364,0.,0.2978301,0.,-0.0223471,0.,0.192683,-0.5234108,0.,0.279

 Normal termination of Gaussian 16 at Sun Mar  6 19:08:09 2022.
