 Gaussian 16, Revision B.01,
 Gaussian 16:  ES64L-G16RevB.01 20-Dec-2017

 ---------------------------------------
 #p freq mp2/aug-cc-pvtz density=current
 ---------------------------------------

 -----
 title
 -----
 Symbolic Z-matrix:
 Charge =  0 Multiplicity = 1

                         Standard orientation:
 ---------------------------------------------------------------------
 Center     Atomic      Atomic             Coordinates (Angstroms)
 Number     Number       Type             X           Y           Z
 ---------------------------------------------------------------------
      1          1           0        1.136842   -0.604739    0.000000
      2          8           0        1.315281    0.364346    0.000000
      3          8           0        0.000000    0.917170    0.000000
      4          7           0       -0.992400   -0.043351    0.000000
      5          8           0       -0.589036   -1.167992    0.000000
 ---------------------------------------------------------------------

 SCF Done:  E(RHF) =  -279.506662589     A.U. after   14 cycles
 E2 =    -0.9484643454D+00 EUMP2 =    -0.28045512693472D+03
 E2 =    -0.9484643454D+00 EUMP2 =    -0.28045512693472D+03

 The electronic state is 1-A'.
 Alpha  occ. eigenvalues --  -20.72004 -20.68624 -20.66783 -15.82519  -1.64296
 Alpha  occ. eigenvalues --   -1.50419  -1.29364  -0.96041  -0.83322  -0.75830
 Alpha  occ. eigenvalues --   -0.73934  -0.63688  -0.61836  -0.61765  -0.50360
 Alpha  occ. eigenvalues --   -0.49733
 Alpha virt. eigenvalues --    0.03474   0.06097   0.09521   0.10043   0.12005
 Alpha virt. eigenvalues --    0.12259   0.14923   0.15121   0.17769   0.18088
 Alpha virt. eigenvalues --    0.18993   0.21124   0.21645   0.24272   0.24639

 Mulliken charges:
               1
     1  H    0.282300
     2  O   -0.273679
     3  O    0.037224
     4  N    0.151995
     5  O   -0.197839
 Sum of Mulliken charges =  -0.00000

 Dipole moment (field-independent basis, Debye):
    X=              0.0936    Y=             -1.1086    Z=              0.0000  Tot=              1.1126
 Quadrupole moment (field-independent basis, Debye-Ang):
   XX=            -23.3097   YY=            -22.9357   ZZ=            -21.9400
   XY=             -2.0513   XZ=              0.0000   YZ=              0.0000

  Exact polarizability:  30.946   4.071  29.886   0.000   0.000  17.648
 Approx polarizability:  24.515   0.438  27.701  -0.000  -0.000  15.532

                      1                      2                      3
                     A"                     A'                     A"
 Frequencies --    330.0463               396.4603               524.4108
 Red. masses --      1.5422                 6.9250                 2.9820
 Frc consts  --      0.0990                 0.6413                 0.4832
 IR Inten    --     65.3641                 7.5947                25.3303

                      4                      5                      6
                     A'                     A'                     A'
 Frequencies --    709.6552               833.0687               968.4960
 Red. masses --     13.2404                11.6387                 9.7537
 Frc consts  --      3.9287                 4.7590                 5.3903
 IR Inten    --    218.3763                30.1779                12.7489

                      7                      8                      9
                     A'                     A'                     A'
 Frequencies --   1415.2727              1566.0487              3497.1335
 Red. masses --      1.2753                 7.7646                 1.0640
 Frc consts  --      1.5050                11.2196                 7.6668
 IR Inten    --     78.4386               149.5818                40.9530

 - Thermochemistry -
 -------------------
 Temperature   298.150 Kelvin.  Pressure   1.00000 Atm.
 Atom     1 has atomic number  1 and mass   1.00783

 Molecular mass:    62.99564 amu.
 Principal axes and moments of inertia in atomic units:
                           1         2         3
     Eigenvalues --    84.71622 222.68516 307.40139
           X            0.79747  -0.60336   0.00000
           Y            0.60336   0.79747   0.00000
           Z            0.00000   0.00000   1.00000
 This molecule is an asymmetric top.
 Rotational symmetry number  1.
 Rotational temperatures (Kelvin)      1.02240     0.38895     0.28176
 Rotational constants (GHZ):          21.30337     8.10445     5.87096
 Zero-point vibrational energy      61252.3 (Joules/Mol)
                                   14.63966 (Kcal/Mol)
 Warning -- explicit consideration of   3 degrees of freedom as
           vibrations may cause significant error
 Vibrational temperatures:    474.86   570.42   754.51  1021.04  1198.60
          (Kelvin)           1393.45  2036.26  2253.19  5031.60

 Zero-point correction=                           0.023330 (Hartree/Particle)
 Thermal correction to Energy=                    0.027296
 Thermal correction to Enthalpy=                  0.028240
 Thermal correction to Gibbs Free Energy=        -0.002672
 Sum of electronic and zero-point Energies=           -280.431797
 Sum of electronic and thermal Energies=              -280.427831
 Sum of electronic and thermal Enthalpies=            -280.426886
 Sum of electronic and thermal Free Energies=         -280.457799

                     E (Thermal)             CV                S
                      KCal/Mol        Cal/Mol-Kelvin    Cal/Mol-Kelvin
 Total                   17.129             12.232             65.061
 Electronic               0.000              0.000              0.000
 Translational            0.889              2.981             38.341
 Rotational               0.889              2.981             23.276
 Vibrational             15.351              6.271              3.444
 Vibration     1          0.713              1.615              1.260
 Vibration     2          0.763              1.478              0.976
 Vibration     3          0.879              1.196              0.600

                       ! Non-Optimized Parameters !

 1\1\GINC-N2218\Freq\RMP2-FC\Aug-CC-pVTZ\H1N1O3\CGAVINH\06-Mar-2022\1\\
 #p freq mp2/aug-cc-pvtz density=current\\title\\0,1\H\O,1,r1\O,2,r2,1,
 a1\N,3,r3,2,a2,1,d1,0\O,4,r4,3,a3,2,d2,0\\r1=0.98537664\r2=1.42673666\
 r3=1.38110764\r4=1.19478846\a1=102.36434779\a2=113.13777052\a3=114.333
 92022\d1=0.\d2=0.\\Version=ES64L-G16RevB.01\State=1-A'\HF=-279.5066626
 \MP2=-280.4551269\RMSD=4.359e-09\RMSF=1.654e-03\ZeroPoint=0.0233298\Th
 ermal=0.0272963\Dipole=-0.1152139,0.,-0.4222803\DipoleDeriv=0.312699,0
 .,0.0442496,0.,0.3021249,0.,-0.0093491,0.,0.1966393,-0.5303394,0.,0.26

 Normal termination of Gaussian 16 at Sun Mar  6 19:25:47 2022.
