 Gaussian 16, Revision B.01,
 Gaussian 16:  ES64L-G16RevB.01 20-Dec-2017

 ---------------------------------------
 #p freq mp2/aug-cc-pvtz density=current
 ---------------------------------------

 -----
 title
 -----
 Symbolic Z-matrix:
 Charge =  0 Multiplicity = 1

                         Standard orientation:
 ---------------------------------------------------------------------
 Center     Atomic      Atomic             Coordinates (Angstroms)
 Number     Number       Type             X           Y           Z
 ---------------------------------------------------------------------
      1          1           0        1.525607    1.697357    0.000000
      2          8           0        1.437203    0.732423    0.000000
      3          8           0        0.000000    0.673184    0.000000
      4          7           0       -0.251741   -0.763714   -0.000000
      5          8           0       -1.407630   -0.949527   -0.000000
 ---------------------------------------------------------------------

 SCF Done:  E(RHF) =  -279.502892413     A.U. after   14 cycles
 E2 =    -0.9437088720D+00 EUMP2 =    -0.28044660128490D+03
 E2 =    -0.9437088720D+00 EUMP2 =    -0.28044660128490D+03

 The electronic state is 1-A'.
 Alpha  occ. eigenvalues --  -20.68994 -20.68400 -20.65856 -15.81249  -1.62459
 Alpha  occ. eigenvalues --   -1.50242  -1.25144  -0.94830  -0.77459  -0.76054
 Alpha  occ. eigenvalues --   -0.71337  -0.67945  -0.62203  -0.59160  -0.48221
 Alpha  occ. eigenvalues --   -0.47210
 Alpha virt. eigenvalues --    0.02965   0.07170   0.08633   0.10178   0.13394
 Alpha virt. eigenvalues --    0.13466   0.14417   0.15460   0.17821   0.19402
 Alpha virt. eigenvalues --    0.19974   0.20650   0.22223   0.23752   0.24312

 Mulliken charges:
               1
     1  H    0.249327
     2  O   -0.199701
     3  O   -0.146100
     4  N    0.290276
     5  O   -0.193802
 Sum of Mulliken charges =  -0.00000

 Dipole moment (field-independent basis, Debye):
    X=              0.5051    Y=              1.3759    Z=              0.0000  Tot=              1.4657
 Quadrupole moment (field-independent basis, Debye-Ang):
   XX=            -22.5594   YY=            -18.5558   ZZ=            -21.9872
   XY=              3.2026   XZ=             -0.0000   YZ=              0.0000

  Exact polarizability:  33.595   9.442  30.319   0.000  -0.000  17.873
 Approx polarizability:  28.535   5.116  23.558   0.000   0.000  15.495

 ******    1 imaginary frequencies (negative Signs) ******

                      1                      2                      3
                     A"                     A"                     A'
 Frequencies --   -263.4351               222.5409               337.8479
 Red. masses --      1.1359                10.7929                 8.5201
 Frc consts  --      0.0464                 0.3149                 0.5730
 IR Inten    --    125.3330                 0.6173                 7.5317

                      4                      5                      6
                     A'                     A'                     A'
 Frequencies --    456.6695               794.1669              1003.1705
 Red. masses --     12.4426                12.7827                15.7240
 Frc consts  --      1.5288                 4.7500                 9.3231
 IR Inten    --    199.1661               174.7588                16.2639

                      7                      8                      9
                     A'                     A'                     A'
 Frequencies --   1389.8044              1678.2206              3777.0717
 Red. masses --      1.1350                13.0036                 1.0674
 Frc consts  --      1.2917                21.5780                 8.9722
 IR Inten    --    154.8976               139.2210                83.2913

 - Thermochemistry -
 -------------------
 Temperature   298.150 Kelvin.  Pressure   1.00000 Atm.
 Atom     1 has atomic number  1 and mass   1.00783

 Molecular mass:    62.99564 amu.
 Principal axes and moments of inertia in atomic units:
                           1         2         3
     Eigenvalues --    32.59832 357.37403 389.97235
           X            0.80407  -0.59454   0.00000
           Y            0.59454   0.80407   0.00000
           Z           -0.00000   0.00000   1.00000
 This molecule is an asymmetric top.
 Rotational symmetry number  1.
 Rotational temperatures (Kelvin)      2.65701     0.24236     0.22210
 Rotational constants (GHZ):          55.36302     5.05001     4.62787
    1 imaginary frequencies ignored.
 Zero-point vibrational energy      57776.6 (Joules/Mol)
                                   13.80894 (Kcal/Mol)
 Warning -- explicit consideration of   3 degrees of freedom as
           vibrations may cause significant error
 Vibrational temperatures:    320.19   486.09   657.05  1142.63  1443.34
          (Kelvin)           1999.62  2414.59  5434.36

 Zero-point correction=                           0.022006 (Hartree/Particle)
 Thermal correction to Energy=                    0.026124
 Thermal correction to Enthalpy=                  0.027069
 Thermal correction to Gibbs Free Energy=        -0.004119
 Sum of electronic and zero-point Energies=           -280.424595
 Sum of electronic and thermal Energies=              -280.420477
 Sum of electronic and thermal Enthalpies=            -280.419533
 Sum of electronic and thermal Free Energies=         -280.450720

                     E (Thermal)             CV                S
                      KCal/Mol        Cal/Mol-Kelvin    Cal/Mol-Kelvin
 Total                   16.393             11.898             65.640
 Electronic               0.000              0.000              0.000
 Translational            0.889              2.981             38.341
 Rotational               0.889              2.981             23.034
 Vibrational             14.616              5.936              4.265
 Vibration     1          0.648              1.807              1.938
 Vibration     2          0.718              1.600              1.222
 Vibration     3          0.815              1.346              0.776

                       ! Non-Optimized Parameters !

 1\1\GINC-N2125\Freq\RMP2-FC\Aug-CC-pVTZ\H1N1O3\CGAVINH\21-Feb-2022\1\\
 #p freq mp2/aug-cc-pvtz density=current\\title\\0,1\H\O,1,r1\O,2,r2,1,
 a1\N,3,r3,2,a2,1,d1,0\O,4,r4,3,a3,2,d2,0\\r1=0.96897556\r2=1.43842336\
 r3=1.45878406\r4=1.17072885\a1=97.59494903\a2=102.29752444\a3=109.0695
 5123\d1=180.\d2=180.\\Version=ES64L-G16RevB.01\State=1-A'\HF=-279.5028
 924\MP2=-280.4466013\RMSD=3.641e-09\RMSF=2.991e-03\ZeroPoint=0.0220059
 \Thermal=0.0261244\Dipole=-0.1485173,0.,-0.5571798\DipoleDeriv=0.26696
 37,0.,0.0492396,0.,0.3562673,0.,0.0795385,0.,0.2776292,-0.3295355,0.,-

 Normal termination of Gaussian 16 at Mon Feb 21 20:15:43 2022.
