 Gaussian 16, Revision B.01,
 Gaussian 16:  ES64L-G16RevB.01 20-Dec-2017

 ---------------------------------------
 #p freq mp2/aug-cc-pvtz density=current
 ---------------------------------------

 -----
 title
 -----
 Symbolic Z-matrix:
 Charge =  0 Multiplicity = 1

                         Standard orientation:
 ---------------------------------------------------------------------
 Center     Atomic      Atomic             Coordinates (Angstroms)
 Number     Number       Type             X           Y           Z
 ---------------------------------------------------------------------
      1          1           0        1.126662   -0.602352    0.000000
      2          8           0        1.315483    0.364764    0.000000
      3          8           0       -0.000000    0.917106   -0.000000
      4          7           0       -0.992048   -0.043778   -0.000000
      5          8           0       -0.588273   -1.168271   -0.000000
 ---------------------------------------------------------------------

 SCF Done:  E(RHF) =  -279.506606061     A.U. after   14 cycles
 E2 =    -0.9485882185D+00 EUMP2 =    -0.28045519427923D+03
 E2 =    -0.9485882185D+00 EUMP2 =    -0.28045519427923D+03

 The electronic state is 1-A'.
 Alpha  occ. eigenvalues --  -20.71995 -20.68661 -20.66801 -15.82549  -1.64344
 Alpha  occ. eigenvalues --   -1.50454  -1.29369  -0.96038  -0.83376  -0.75852
 Alpha  occ. eigenvalues --   -0.73957  -0.63704  -0.61854  -0.61792  -0.50400
 Alpha  occ. eigenvalues --   -0.49740
 Alpha virt. eigenvalues --    0.03486   0.06071   0.09518   0.10042   0.11993
 Alpha virt. eigenvalues --    0.12260   0.14929   0.15150   0.17763   0.18068
 Alpha virt. eigenvalues --    0.18988   0.21115   0.21655   0.24266   0.24638

 Mulliken charges:
               1
     1  H    0.280772
     2  O   -0.273840
     3  O    0.037462
     4  N    0.152707
     5  O   -0.197101
 Sum of Mulliken charges =  -0.00000

 Dipole moment (field-independent basis, Debye):
    X=              0.0783    Y=             -1.1033    Z=              0.0000  Tot=              1.1061
 Quadrupole moment (field-independent basis, Debye-Ang):
   XX=            -23.3354   YY=            -22.9380   ZZ=            -21.9376
   XY=             -2.0230   XZ=             -0.0000   YZ=              0.0000

  Exact polarizability:  30.937   4.097  29.875   0.000  -0.000  17.637
 Approx polarizability:  24.531   0.468  27.686   0.000  -0.000  15.526

                      1                      2                      3
                     A"                     A'                     A"
 Frequencies --    339.4815               396.7269               524.1778
 Red. masses --      1.5492                 6.9731                 2.9494
 Frc consts  --      0.1052                 0.6466                 0.4775
 IR Inten    --     64.3464                 7.6631                25.4660

                      4                      5                      6
                     A'                     A'                     A'
 Frequencies --    710.3348               834.5210               969.3912
 Red. masses --     13.2784                11.9094                 9.7549
 Frc consts  --      3.9475                 4.8867                 5.4009
 IR Inten    --    217.9912                30.3623                12.7566

                      7                      8                      9
                     A'                     A'                     A'
 Frequencies --   1422.1008              1567.5147              3493.7083
 Red. masses --      1.2841                 7.2706                 1.0639
 Frc consts  --      1.5300                10.5256                 7.6511
 IR Inten    --     78.9802               149.8787                41.5079

 - Thermochemistry -
 -------------------
 Temperature   298.150 Kelvin.  Pressure   1.00000 Atm.
 Atom     1 has atomic number  1 and mass   1.00783

 Molecular mass:    62.99564 amu.
 Principal axes and moments of inertia in atomic units:
                           1         2         3
     Eigenvalues --    84.64722 222.65632 307.30355
           X            0.79704  -0.60392   0.00000
           Y            0.60392   0.79704   0.00000
           Z           -0.00000   0.00000   1.00000
 This molecule is an asymmetric top.
 Rotational symmetry number  1.
 Rotational temperatures (Kelvin)      1.02323     0.38900     0.28185
 Rotational constants (GHZ):          21.32074     8.10550     5.87283
 Zero-point vibrational energy      61356.2 (Joules/Mol)
                                   14.66449 (Kcal/Mol)
 Warning -- explicit consideration of   3 degrees of freedom as
           vibrations may cause significant error
 Vibrational temperatures:    488.44   570.80   754.17  1022.01  1200.69
          (Kelvin)           1394.74  2046.09  2255.30  5026.67

 Zero-point correction=                           0.023369 (Hartree/Particle)
 Thermal correction to Energy=                    0.027324
 Thermal correction to Enthalpy=                  0.028268
 Thermal correction to Gibbs Free Energy=        -0.002621
 Sum of electronic and zero-point Energies=           -280.431825
 Sum of electronic and thermal Energies=              -280.427870
 Sum of electronic and thermal Enthalpies=            -280.426926
 Sum of electronic and thermal Free Energies=         -280.457815

                     E (Thermal)             CV                S
                      KCal/Mol        Cal/Mol-Kelvin    Cal/Mol-Kelvin
 Total                   17.146             12.206             65.012
 Electronic               0.000              0.000              0.000
 Translational            0.889              2.981             38.341
 Rotational               0.889              2.981             23.275
 Vibrational             15.369              6.244              3.396
 Vibration     1          0.719              1.597              1.215
 Vibration     2          0.763              1.477              0.975
 Vibration     3          0.879              1.196              0.600

                       ! Non-Optimized Parameters !

 1\1\GINC-N2174\Freq\RMP2-FC\Aug-CC-pVTZ\H1N1O3\CGAVINH\06-Mar-2022\1\\
 #p freq mp2/aug-cc-pvtz density=current\\title\\0,1\H\O,1,r1\O,2,r2,1,
 a1\N,3,r3,2,a2,1,d1,0\O,4,r4,3,a3,2,d2,0\\r1=0.98537664\r2=1.42673666\
 r3=1.38110764\r4=1.19478846\a1=101.72892145\a2=113.13777052\a3=114.333
 92022\d1=0.\d2=0.\\Version=ES64L-G16RevB.01\State=1-A'\HF=-279.5066061
 \MP2=-280.4551943\RMSD=4.383e-09\RMSF=1.070e-03\ZeroPoint=0.0233693\Th
 ermal=0.0273239\Dipole=-0.1134104,0.,-0.4201221\DipoleDeriv=0.314336,0
 .,0.0419705,0.,0.3006323,0.,-0.0149279,0.,0.1976977,-0.5296361,0.,0.27

 Normal termination of Gaussian 16 at Sun Mar  6 19:25:13 2022.
