 Gaussian 16, Revision B.01,
 Gaussian 16:  ES64L-G16RevB.01 20-Dec-2017

 ---------------------------------------
 #p freq mp2/aug-cc-pvtz density=current
 ---------------------------------------

 -----
 title
 -----
 Symbolic Z-matrix:
 Charge =  0 Multiplicity = 1

                         Standard orientation:
 ---------------------------------------------------------------------
 Center     Atomic      Atomic             Coordinates (Angstroms)
 Number     Number       Type             X           Y           Z
 ---------------------------------------------------------------------
      1          1           0        1.548478    1.685370   -0.000000
      2          8           0        1.454032    0.721008   -0.000000
      3          8           0        0.000000    0.670196   -0.000000
      4          7           0       -0.260736   -0.765097    0.000000
      5          8           0       -1.419447   -0.932416    0.000000
 ---------------------------------------------------------------------

 SCF Done:  E(RHF) =  -279.501700298     A.U. after   14 cycles
 E2 =    -0.9450120375D+00 EUMP2 =    -0.28044671233536D+03
 E2 =    -0.9450120375D+00 EUMP2 =    -0.28044671233536D+03

 The electronic state is 1-A'.
 Alpha  occ. eigenvalues --  -20.69065 -20.68410 -20.65962 -15.81303  -1.62450
 Alpha  occ. eigenvalues --   -1.49533  -1.25396  -0.94821  -0.77248  -0.75937
 Alpha  occ. eigenvalues --   -0.71190  -0.67923  -0.62024  -0.58894  -0.48496
 Alpha  occ. eigenvalues --   -0.47317
 Alpha virt. eigenvalues --    0.02967   0.07144   0.08605   0.10171   0.13392
 Alpha virt. eigenvalues --    0.13392   0.14411   0.15449   0.17832   0.19415
 Alpha virt. eigenvalues --    0.19983   0.20647   0.22081   0.23598   0.23746

 Mulliken charges:
               1
     1  H    0.250233
     2  O   -0.202799
     3  O   -0.146367
     4  N    0.292388
     5  O   -0.193454
 Sum of Mulliken charges =  -0.00000

 Dipole moment (field-independent basis, Debye):
    X=              0.5097    Y=              1.3534    Z=             -0.0000  Tot=              1.4462
 Quadrupole moment (field-independent basis, Debye-Ang):
   XX=            -22.4868   YY=            -18.6122   ZZ=            -22.0076
   XY=              3.2423   XZ=              0.0000   YZ=             -0.0000

  Exact polarizability:  33.987   9.420  30.168  -0.000  -0.000  17.917
 Approx polarizability:  29.023   5.033  23.464  -0.000  -0.000  15.517

 ******    1 imaginary frequencies (negative Signs) ******

                      1                      2                      3
                     A"                     A"                     A'
 Frequencies --   -267.4692               229.4208               341.4964
 Red. masses --      1.1369                10.7383                 8.6317
 Frc consts  --      0.0479                 0.3330                 0.5931
 IR Inten    --    124.8636                 0.6431                 3.9387

                      4                      5                      6
                     A'                     A'                     A'
 Frequencies --    456.2518               784.6357               967.7750
 Red. masses --     12.2450                12.9291                15.4329
 Frc consts  --      1.5018                 4.6898                 8.5162
 IR Inten    --    199.9386               168.2651                21.7167

                      7                      8                      9
                     A'                     A'                     A'
 Frequencies --   1371.3349              1677.4860              3778.6038
 Red. masses --      1.1333                13.2331                 1.0675
 Frc consts  --      1.2557                21.9397                 8.9804
 IR Inten    --    151.9786               138.8587                82.0956

 - Thermochemistry -
 -------------------
 Temperature   298.150 Kelvin.  Pressure   1.00000 Atm.
 Atom     1 has atomic number  1 and mass   1.00783

 Molecular mass:    62.99564 amu.
 Principal axes and moments of inertia in atomic units:
                           1         2         3
     Eigenvalues --    32.93134 359.15378 392.08513
           X            0.81147  -0.58440   0.00000
           Y            0.58440   0.81147   0.00000
           Z           -0.00000   0.00000   1.00000
 This molecule is an asymmetric top.
 Rotational symmetry number  1.
 Rotational temperatures (Kelvin)      2.63014     0.24116     0.22091
 Rotational constants (GHZ):          54.80315     5.02498     4.60293
    1 imaginary frequencies ignored.
 Zero-point vibrational energy      57462.6 (Joules/Mol)
                                   13.73390 (Kcal/Mol)
 Warning -- explicit consideration of   3 degrees of freedom as
           vibrations may cause significant error
 Vibrational temperatures:    330.09   491.34   656.44  1128.92  1392.41
          (Kelvin)           1973.05  2413.53  5436.57

 Zero-point correction=                           0.021886 (Hartree/Particle)
 Thermal correction to Energy=                    0.026000
 Thermal correction to Enthalpy=                  0.026944
 Thermal correction to Gibbs Free Energy=        -0.004231
 Sum of electronic and zero-point Energies=           -280.424826
 Sum of electronic and thermal Energies=              -280.420713
 Sum of electronic and thermal Enthalpies=            -280.419768
 Sum of electronic and thermal Free Energies=         -280.450943

                     E (Thermal)             CV                S
                      KCal/Mol        Cal/Mol-Kelvin    Cal/Mol-Kelvin
 Total                   16.315             11.944             65.613
 Electronic               0.000              0.000              0.000
 Translational            0.889              2.981             38.341
 Rotational               0.889              2.981             23.054
 Vibrational             14.538              5.982              4.218
 Vibration     1          0.652              1.796              1.883
 Vibration     2          0.721              1.593              1.205
 Vibration     3          0.814              1.347              0.777

                       ! Non-Optimized Parameters !

 1\1\GINC-N2108\Freq\RMP2-FC\Aug-CC-pVTZ\H1N1O3\CGAVINH\21-Feb-2022\1\\
 #p freq mp2/aug-cc-pvtz density=current\\title\\0,1\H\O,1,r1\O,2,r2,1,
 a1\N,3,r3,2,a2,1,d1,0\O,4,r4,3,a3,2,d2,0\\r1=0.96897556\r2=1.45491931\
 r3=1.45878406\r4=1.17072885\a1=97.59494903\a2=102.29752444\a3=108.5128
 7566\d1=180.\d2=180.\\Version=ES64L-G16RevB.01\State=1-A'\HF=-279.5017
 003\MP2=-280.4467123\RMSD=3.766e-09\RMSF=1.064e-03\ZeroPoint=0.0218864
 \Thermal=0.0259997\Dipole=-0.1476929,0.,-0.5494732\DipoleDeriv=0.26604
 56,0.,0.0481267,0.,0.3554458,0.,0.0816715,0.,0.2747239,-0.3293612,0.,-

 Normal termination of Gaussian 16 at Mon Feb 21 20:59:15 2022.
