 Gaussian 16, Revision B.01,
 Gaussian 16:  ES64L-G16RevB.01 20-Dec-2017

 ---------------------------------------
 #p freq mp2/aug-cc-pvtz density=current
 ---------------------------------------

 -----
 title
 -----
 Symbolic Z-matrix:
 Charge =  0 Multiplicity = 1

                         Standard orientation:
 ---------------------------------------------------------------------
 Center     Atomic      Atomic             Coordinates (Angstroms)
 Number     Number       Type             X           Y           Z
 ---------------------------------------------------------------------
      1          1           0       -0.548540   -1.135180    0.116932
      2          8           0       -1.276672   -0.484164   -0.013336
      3          8           0       -0.542420    0.739014    0.003612
      4          7           0        0.825789    0.550702    0.004546
      5          8           0        1.165094   -0.594816   -0.008870
 ---------------------------------------------------------------------

 SCF Done:  E(RHF) =  -279.506325959     A.U. after   16 cycles
 E2 =    -0.9487146279D+00 EUMP2 =    -0.28045504058648D+03
 E2 =    -0.9487146279D+00 EUMP2 =    -0.28045504058648D+03

 The electronic state is 1-A.
 Alpha  occ. eigenvalues --  -20.71964 -20.68679 -20.66859 -15.82561  -1.64385
 Alpha  occ. eigenvalues --   -1.50506  -1.29368  -0.96012  -0.83376  -0.75865
 Alpha  occ. eigenvalues --   -0.74014  -0.63860  -0.61929  -0.61609  -0.50441
 Alpha  occ. eigenvalues --   -0.49765
 Alpha virt. eigenvalues --    0.03493   0.06056   0.09512   0.10042   0.11886
 Alpha virt. eigenvalues --    0.12266   0.15007   0.15182   0.17652   0.18135
 Alpha virt. eigenvalues --    0.18893   0.21211   0.21697   0.24221   0.24620

 Mulliken charges:
               1
     1  H    0.278738
     2  O   -0.273411
     3  O    0.036621
     4  N    0.154790
     5  O   -0.196738
 Sum of Mulliken charges =  -0.00000

 Dipole moment (field-independent basis, Debye):
    X=              0.5903    Y=             -0.9133    Z=              0.1861  Tot=              1.1033
 Quadrupole moment (field-independent basis, Debye-Ang):
   XX=            -25.1046   YY=            -21.2313   ZZ=            -21.8969
   XY=              0.4039   XZ=             -0.0884   YZ=             -0.3323

  Exact polarizability:  34.460  -0.732  26.285  -0.011  -0.071  17.645
 Approx polarizability:  26.099  -1.630  26.084   0.097  -0.063  15.549

                      1                      2                      3
                      A                      A                      A
 Frequencies --    325.3135               402.1194               515.7678
 Red. masses --      1.4800                 6.4546                 3.4581
 Frc consts  --      0.0923                 0.6149                 0.5420
 IR Inten    --     64.6797                 9.8032                20.2510

                      4                      5                      6
                      A                      A                      A
 Frequencies --    711.6891               837.2101               970.9681
 Red. masses --     12.4337                12.3788                 9.8452
 Frc consts  --      3.7105                 5.1121                 5.4687
 IR Inten    --    218.2601                32.1040                12.6544

                      7                      8                      9
                      A                      A                      A
 Frequencies --   1438.5284              1569.2807              3490.9968
 Red. masses --      1.2988                 6.4603                 1.0639
 Frc consts  --      1.5836                 9.3735                 7.6389
 IR Inten    --     79.0926               149.0459                40.7603

 - Thermochemistry -
 -------------------
 Temperature   298.150 Kelvin.  Pressure   1.00000 Atm.
 Atom     1 has atomic number  1 and mass   1.00783

 Molecular mass:    62.99564 amu.
 Principal axes and moments of inertia in atomic units:
                           1         2         3
     Eigenvalues --    84.55312 222.70292 307.13222
           X            0.99987   0.01612  -0.00109
           Y           -0.01612   0.99985  -0.00568
           Z            0.00100   0.00570   0.99998
 This molecule is an asymmetric top.
 Rotational symmetry number  1.
 Rotational temperatures (Kelvin)      1.02437     0.38892     0.28201
 Rotational constants (GHZ):          21.34447     8.10381     5.87611
 Zero-point vibrational energy      61379.6 (Joules/Mol)
                                   14.67009 (Kcal/Mol)
 Warning -- explicit consideration of   3 degrees of freedom as
           vibrations may cause significant error
 Vibrational temperatures:    468.05   578.56   742.07  1023.96  1204.56
          (Kelvin)           1397.01  2069.72  2257.84  5022.77

 Zero-point correction=                           0.023378 (Hartree/Particle)
 Thermal correction to Energy=                    0.027348
 Thermal correction to Enthalpy=                  0.028292
 Thermal correction to Gibbs Free Energy=        -0.002626
 Sum of electronic and zero-point Energies=           -280.431662
 Sum of electronic and thermal Energies=              -280.427693
 Sum of electronic and thermal Enthalpies=            -280.426749
 Sum of electronic and thermal Free Energies=         -280.457667

                     E (Thermal)             CV                S
                      KCal/Mol        Cal/Mol-Kelvin    Cal/Mol-Kelvin
 Total                   17.161             12.227             65.073
 Electronic               0.000              0.000              0.000
 Translational            0.889              2.981             38.341
 Rotational               0.889              2.981             23.274
 Vibrational             15.384              6.265              3.459
 Vibration     1          0.709              1.625              1.283
 Vibration     2          0.768              1.466              0.955
 Vibration     3          0.871              1.215              0.620

                       ! Non-Optimized Parameters !

 1\1\GINC-N2110\Freq\RMP2-FC\Aug-CC-pVTZ\H1N1O3\CGAVINH\06-Mar-2022\1\\
 #p freq mp2/aug-cc-pvtz density=current\\title\\0,1\H\O,1,r1\O,2,r2,1,
 a1\N,3,r3,2,a2,1,d1,0\O,4,r4,3,a3,2,d2,0\\r1=0.98537664\r2=1.42673666\
 r3=1.38110764\r4=1.19478846\a1=100.6355057\a2=113.13777052\a3=114.3339
 2022\d1=8.10870376\d2=0.\\Version=ES64L-G16RevB.01\State=1-A\HF=-279.5
 06326\MP2=-280.4550406\RMSD=6.915e-09\RMSF=8.983e-04\ZeroPoint=0.02337
 83\Thermal=0.0273479\Dipole=-0.1123278,-0.0222302,-0.4186909\DipoleDer
 iv=0.3133081,0.0132596,0.0410271,0.0184425,0.300022,0.0047155,-0.01924

 Normal termination of Gaussian 16 at Sun Mar  6 19:53:21 2022.
