 Gaussian 16, Revision B.01,
 Gaussian 16:  ES64L-G16RevB.01 20-Dec-2017

 ---------------------------------------
 #p freq mp2/aug-cc-pvtz density=current
 ---------------------------------------

 -----
 title
 -----
 Symbolic Z-matrix:
 Charge =  0 Multiplicity = 1

                         Standard orientation:
 ---------------------------------------------------------------------
 Center     Atomic      Atomic             Coordinates (Angstroms)
 Number     Number       Type             X           Y           Z
 ---------------------------------------------------------------------
      1          1           0        1.098748   -0.585591    0.000000
      2          8           0        1.299627    0.379093    0.000000
      3          8           0       -0.000000    0.914715   -0.000000
      4          7           0       -0.985685   -0.052696   -0.000000
      5          8           0       -0.574496   -1.174500   -0.000000
 ---------------------------------------------------------------------

 SCF Done:  E(RHF) =  -279.507436854     A.U. after   14 cycles
 E2 =    -0.9475841944D+00 EUMP2 =    -0.28045502104796D+03
 E2 =    -0.9475841944D+00 EUMP2 =    -0.28045502104796D+03

 The electronic state is 1-A'.
 Alpha  occ. eigenvalues --  -20.71994 -20.68757 -20.66629 -15.82571  -1.64793
 Alpha  occ. eigenvalues --   -1.51240  -1.29106  -0.96156  -0.83857  -0.76048
 Alpha  occ. eigenvalues --   -0.74307  -0.63442  -0.62360  -0.62057  -0.50545
 Alpha  occ. eigenvalues --   -0.49385
 Alpha virt. eigenvalues --    0.03530   0.06016   0.09514   0.10058   0.11956
 Alpha virt. eigenvalues --    0.12302   0.14975   0.15407   0.17746   0.18003
 Alpha virt. eigenvalues --    0.18965   0.21111   0.21692   0.24638   0.25267

 Mulliken charges:
               1
     1  H    0.274303
     2  O   -0.271890
     3  O    0.044267
     4  N    0.149889
     5  O   -0.196568
 Sum of Mulliken charges =  -0.00000

 Dipole moment (field-independent basis, Debye):
    X=              0.0883    Y=             -1.0648    Z=              0.0000  Tot=              1.0684
 Quadrupole moment (field-independent basis, Debye-Ang):
   XX=            -23.3792   YY=            -22.9757   ZZ=            -21.9052
   XY=             -1.9261   XZ=             -0.0000   YZ=             -0.0000

  Exact polarizability:  30.573   4.262  29.872   0.000  -0.000  17.561
 Approx polarizability:  24.145   0.674  27.585   0.000  -0.000  15.484

                      1                      2                      3
                     A"                     A'                     A"
 Frequencies --    354.1523               400.1324               525.3765
 Red. masses --      1.5709                 7.0274                 2.8612
 Frc consts  --      0.1161                 0.6629                 0.4653
 IR Inten    --     61.9378                 8.0158                25.6804

                      4                      5                      6
                     A'                     A'                     A'
 Frequencies --    716.6342               870.4829              1001.7810
 Red. masses --     13.3902                11.2280                10.8319
 Frc consts  --      4.0516                 5.0127                 6.4047
 IR Inten    --    222.4498                30.8526                11.7395

                      7                      8                      9
                     A'                     A'                     A'
 Frequencies --   1452.6744              1576.0842              3478.3078
 Red. masses --      1.3753                 5.0939                 1.0634
 Frc consts  --      1.7100                 7.4552                 7.5799
 IR Inten    --     79.5785               152.2461                43.7861

 - Thermochemistry -
 -------------------
 Temperature   298.150 Kelvin.  Pressure   1.00000 Atm.
 Atom     1 has atomic number  1 and mass   1.00783

 Molecular mass:    62.99564 amu.
 Principal axes and moments of inertia in atomic units:
                           1         2         3
     Eigenvalues --    83.27900 221.05623 304.33523
           X            0.78504  -0.61945   0.00000
           Y            0.61945   0.78504   0.00000
           Z           -0.00000   0.00000   1.00000
 This molecule is an asymmetric top.
 Rotational symmetry number  1.
 Rotational temperatures (Kelvin)      1.04005     0.39182     0.28460
 Rotational constants (GHZ):          21.67102     8.16417     5.93011
 Zero-point vibrational energy      62060.0 (Joules/Mol)
                                   14.83270 (Kcal/Mol)
 Warning -- explicit consideration of   3 degrees of freedom as
           vibrations may cause significant error
 Vibrational temperatures:    509.55   575.70   755.90  1031.08  1252.43
          (Kelvin)           1441.34  2090.07  2267.63  5004.51

 Zero-point correction=                           0.023637 (Hartree/Particle)
 Thermal correction to Energy=                    0.027555
 Thermal correction to Enthalpy=                  0.028499
 Thermal correction to Gibbs Free Energy=        -0.002314
 Sum of electronic and zero-point Energies=           -280.431384
 Sum of electronic and thermal Energies=              -280.427467
 Sum of electronic and thermal Enthalpies=            -280.426522
 Sum of electronic and thermal Free Energies=         -280.457335

                     E (Thermal)             CV                S
                      KCal/Mol        Cal/Mol-Kelvin    Cal/Mol-Kelvin
 Total                   17.291             12.052             64.850
 Electronic               0.000              0.000              0.000
 Translational            0.889              2.981             38.341
 Rotational               0.889              2.981             23.242
 Vibrational             15.513              6.091              3.267
 Vibration     1          0.730              1.567              1.148
 Vibration     2          0.766              1.470              0.962
 Vibration     3          0.880              1.194              0.598

                       ! Non-Optimized Parameters !

 1\1\GINC-N2110\Freq\RMP2-FC\Aug-CC-pVTZ\H1N1O3\CGAVINH\06-Mar-2022\1\\
 #p freq mp2/aug-cc-pvtz density=current\\title\\0,1\H\O,1,r1\O,2,r2,1,
 a1\N,3,r3,2,a2,1,d1,0\O,4,r4,3,a3,2,d2,0\\r1=0.98537664\r2=1.40567475\
 r3=1.38110764\r4=1.19478846\a1=100.6355057\a2=113.13777052\a3=114.3339
 2022\d1=0.\d2=0.\\Version=ES64L-G16RevB.01\State=1-A'\HF=-279.5074369\
 MP2=-280.455021\RMSD=4.064e-09\RMSF=3.670e-03\ZeroPoint=0.0236374\Ther
 mal=0.0275545\Dipole=-0.1193941,0.,-0.4030429\DipoleDeriv=0.3171354,0.
 ,0.038712,0.,0.2969794,0.,-0.0312606,0.,0.2020679,-0.5282097,0.,0.3044

 Normal termination of Gaussian 16 at Sun Mar  6 19:04:24 2022.
