 Gaussian 16, Revision B.01,
 Gaussian 16:  ES64L-G16RevB.01 20-Dec-2017

 ---------------------------------------
 #p freq mp2/aug-cc-pvtz density=current
 ---------------------------------------

 -----
 title
 -----
 Symbolic Z-matrix:
 Charge =  0 Multiplicity = 1

                         Standard orientation:
 ---------------------------------------------------------------------
 Center     Atomic      Atomic             Coordinates (Angstroms)
 Number     Number       Type             X           Y           Z
 ---------------------------------------------------------------------
      1          1           0        1.550469    1.699851    0.000000
      2          8           0        1.454066    0.722415    0.000000
      3          8           0       -0.000000    0.672598    0.000000
      4          7           0       -0.261719   -0.762516   -0.000000
      5          8           0       -1.418871   -0.940293   -0.000000
 ---------------------------------------------------------------------

 SCF Done:  E(RHF) =  -279.500900721     A.U. after   14 cycles
 E2 =    -0.9456792261D+00 EUMP2 =    -0.28044657994675D+03
 E2 =    -0.9456792261D+00 EUMP2 =    -0.28044657994675D+03

 The electronic state is 1-A'.
 Alpha  occ. eigenvalues --  -20.69053 -20.68404 -20.66099 -15.81256  -1.62373
 Alpha  occ. eigenvalues --   -1.49416  -1.25187  -0.94776  -0.77175  -0.75810
 Alpha  occ. eigenvalues --   -0.71149  -0.67732  -0.62007  -0.58879  -0.48478
 Alpha  occ. eigenvalues --   -0.47214
 Alpha virt. eigenvalues --    0.02937   0.07187   0.08600   0.10175   0.13396
 Alpha virt. eigenvalues --    0.13405   0.14350   0.15405   0.17844   0.19421
 Alpha virt. eigenvalues --    0.19985   0.20636   0.22086   0.23579   0.23750

 Mulliken charges:
               1
     1  H    0.260690
     2  O   -0.212042
     3  O   -0.146271
     4  N    0.290854
     5  O   -0.193233
 Sum of Mulliken charges =  -0.00000

 Dipole moment (field-independent basis, Debye):
    X=              0.5152    Y=              1.3776    Z=              0.0000  Tot=              1.4707
 Quadrupole moment (field-independent basis, Debye-Ang):
   XX=            -22.4749   YY=            -18.5642   ZZ=            -22.0269
   XY=              3.2820   XZ=              0.0000   YZ=             -0.0000

  Exact polarizability:  34.063   9.534  30.438   0.000   0.000  17.960
 Approx polarizability:  29.043   5.123  23.660   0.000   0.000  15.543

                      1                      2                      3
                     A"                     A"                     A'
 Frequencies --    222.3872               323.1570               351.2889
 Red. masses --     13.8115                 1.1117                 9.0976
 Frc consts  --      0.4024                 0.0684                 0.6615
 IR Inten    --      4.6496               119.4360                 3.6983

                      4                      5                      6
                     A'                     A'                     A'
 Frequencies --    451.4416               789.2918               967.8796
 Red. masses --     12.3300                13.3928                15.1277
 Frc consts  --      1.4805                 4.9158                 8.3496
 IR Inten    --    200.5528               178.7607                20.4839

                      7                      8                      9
                     A'                     A'                     A'
 Frequencies --   1410.0502              1677.6200              3610.7928
 Red. masses --      1.1262                12.8894                 1.0676
 Frc consts  --      1.3193                21.3733                 8.2008
 IR Inten    --    151.9178               137.8381                80.8685

 - Thermochemistry -
 -------------------
 Temperature   298.150 Kelvin.  Pressure   1.00000 Atm.
 Atom     1 has atomic number  1 and mass   1.00783

 Molecular mass:    62.99564 amu.
 Principal axes and moments of inertia in atomic units:
                           1         2         3
     Eigenvalues --    32.87381 360.29050 393.16431
           X            0.81002  -0.58641   0.00000
           Y            0.58641   0.81002   0.00000
           Z            0.00000  -0.00000   1.00000
 This molecule is an asymmetric top.
 Rotational symmetry number  1.
 Rotational temperatures (Kelvin)      2.63474     0.24040     0.22030
 Rotational constants (GHZ):          54.89905     5.00913     4.59030
 Zero-point vibrational energy      58640.4 (Joules/Mol)
                                   14.01539 (Kcal/Mol)
 Warning -- explicit consideration of   4 degrees of freedom as
           vibrations may cause significant error
 Vibrational temperatures:    319.97   464.95   505.43   649.52  1135.61
          (Kelvin)           1392.56  2028.75  2413.72  5195.13

 Zero-point correction=                           0.022335 (Hartree/Particle)
 Thermal correction to Energy=                    0.026841
 Thermal correction to Enthalpy=                  0.027785
 Thermal correction to Gibbs Free Energy=        -0.004015
 Sum of electronic and zero-point Energies=           -280.424245
 Sum of electronic and thermal Energies=              -280.419739
 Sum of electronic and thermal Enthalpies=            -280.418795
 Sum of electronic and thermal Free Energies=         -280.450595

                     E (Thermal)             CV                S
                      KCal/Mol        Cal/Mol-Kelvin    Cal/Mol-Kelvin
 Total                   16.843             13.552             66.930
 Electronic               0.000              0.000              0.000
 Translational            0.889              2.981             38.341
 Rotational               0.889              2.981             23.058
 Vibrational             15.066              7.591              5.531
 Vibration     1          0.648              1.807              1.940
 Vibration     2          0.708              1.629              1.294
 Vibration     3          0.728              1.573              1.160
 Vibration     4          0.810              1.358              0.791

                       ! Non-Optimized Parameters !

 1\1\GINC-N2127\Freq\RMP2-FC\Aug-CC-pVTZ\H1N1O3\CGAVINH\21-Feb-2022\1\\
 #p freq mp2/aug-cc-pvtz density=current\\title\\0,1\H\O,1,r1\O,2,r2,1,
 a1\N,3,r3,2,a2,1,d1,0\O,4,r4,3,a3,2,d2,0\\r1=0.98217847\r2=1.45491931\
 r3=1.45878406\r4=1.17072885\a1=97.59494903\a2=102.29752444\a3=109.0695
 5123\d1=180.\d2=180.\\Version=ES64L-G16RevB.01\State=1-A'\HF=-279.5009
 007\MP2=-280.4465799\RMSD=3.793e-09\RMSF=4.433e-03\ZeroPoint=0.0223349
 \Thermal=0.0268411\Dipole=-0.1485059,0.,-0.5592512\DipoleDeriv=0.26795
 15,0.,0.0478927,0.,0.3537367,0.,0.0795519,0.,0.2736472,-0.3280262,0.,-

 Normal termination of Gaussian 16 at Mon Feb 21 20:02:48 2022.
