 Gaussian 16, Revision B.01,
 Gaussian 16:  ES64L-G16RevB.01 20-Dec-2017

 ---------------------------------------
 #p freq mp2/aug-cc-pvtz density=current
 ---------------------------------------

 -----
 title
 -----
 Symbolic Z-matrix:
 Charge =  0 Multiplicity = 1

                         Standard orientation:
 ---------------------------------------------------------------------
 Center     Atomic      Atomic             Coordinates (Angstroms)
 Number     Number       Type             X           Y           Z
 ---------------------------------------------------------------------
      1          1           0        1.112594   -0.581939    0.000000
      2          8           0        1.315762    0.364789    0.000000
      3          8           0       -0.000000    0.916466    0.000000
      4          7           0       -0.991563   -0.044919    0.000000
      5          8           0       -0.587219   -1.169208    0.000000
 ---------------------------------------------------------------------

 SCF Done:  E(RHF) =  -279.507212581     A.U. after   14 cycles
 E2 =    -0.9477892555D+00 EUMP2 =    -0.28045500183613D+03
 E2 =    -0.9477892555D+00 EUMP2 =    -0.28045500183613D+03

 The electronic state is 1-A'.
 Alpha  occ. eigenvalues --  -20.72006 -20.68708 -20.66767 -15.82603  -1.64461
 Alpha  occ. eigenvalues --   -1.50665  -1.29695  -0.96143  -0.83549  -0.75914
 Alpha  occ. eigenvalues --   -0.74026  -0.64120  -0.61925  -0.61876  -0.50453
 Alpha  occ. eigenvalues --   -0.49824
 Alpha virt. eigenvalues --    0.03520   0.06033   0.09502   0.10043   0.11958
 Alpha virt. eigenvalues --    0.12256   0.14962   0.15217   0.17724   0.18026
 Alpha virt. eigenvalues --    0.18973   0.21123   0.21688   0.24197   0.24630

 Mulliken charges:
               1
     1  H    0.267160
     2  O   -0.262112
     3  O    0.037869
     4  N    0.153094
     5  O   -0.196011
 Sum of Mulliken charges =  -0.00000

 Dipole moment (field-independent basis, Debye):
    X=              0.0567    Y=             -1.0785    Z=              0.0000  Tot=              1.0799
 Quadrupole moment (field-independent basis, Debye-Ang):
   XX=            -23.3540   YY=            -22.9659   ZZ=            -21.9119
   XY=             -1.9586   XZ=              0.0000   YZ=              0.0000

  Exact polarizability:  30.817   4.143  29.739   0.000   0.000  17.579
 Approx polarizability:  24.474   0.490  27.515  -0.000  -0.000  15.489

 ******    1 imaginary frequencies (negative Signs) ******

                      1                      2                      3
                     A"                     A'                     A"
 Frequencies --   -280.7817               391.5245               496.9437
 Red. masses --      1.1694                 6.8207                 7.6025
 Frc consts  --      0.0543                 0.6160                 1.1062
 IR Inten    --     84.8859                 8.1092                 5.0935

                      4                      5                      6
                     A'                     A'                     A'
 Frequencies --    709.4180               837.7916               963.3925
 Red. masses --     12.8446                12.6512                 8.5342
 Frc consts  --      3.8087                 5.2318                 4.6668
 IR Inten    --    219.2678                30.7435                15.9831

                      7                      8                      9
                     A'                     A'                     A'
 Frequencies --   1400.0482              1566.1260              3709.4517
 Red. masses --      1.2780                 8.3792                 1.0643
 Frc consts  --      1.4760                12.1089                 8.6286
 IR Inten    --     75.0480               147.4676                40.7209

 - Thermochemistry -
 -------------------
 Temperature   298.150 Kelvin.  Pressure   1.00000 Atm.
 Atom     1 has atomic number  1 and mass   1.00783

 Molecular mass:    62.99564 amu.
 Principal axes and moments of inertia in atomic units:
                           1         2         3
     Eigenvalues --    84.43492 222.65852 307.09344
           X            0.79653  -0.60460   0.00000
           Y            0.60460   0.79653   0.00000
           Z            0.00000   0.00000   1.00000
 This molecule is an asymmetric top.
 Rotational symmetry number  1.
 Rotational temperatures (Kelvin)      1.02581     0.38900     0.28204
 Rotational constants (GHZ):          21.37435     8.10542     5.87685
    1 imaginary frequencies ignored.
 Zero-point vibrational energy      60260.1 (Joules/Mol)
                                   14.40250 (Kcal/Mol)
 Warning -- explicit consideration of   2 degrees of freedom as
           vibrations may cause significant error
 Vibrational temperatures:    563.32   714.99  1020.69  1205.40  1386.11
          (Kelvin)           2014.36  2253.31  5337.07

 Zero-point correction=                           0.022952 (Hartree/Particle)
 Thermal correction to Energy=                    0.026559
 Thermal correction to Enthalpy=                  0.027503
 Thermal correction to Gibbs Free Energy=        -0.002849
 Sum of electronic and zero-point Energies=           -280.432050
 Sum of electronic and thermal Energies=              -280.428443
 Sum of electronic and thermal Enthalpies=            -280.427499
 Sum of electronic and thermal Free Energies=         -280.457851

                     E (Thermal)             CV                S
                      KCal/Mol        Cal/Mol-Kelvin    Cal/Mol-Kelvin
 Total                   16.666             10.693             63.882
 Electronic               0.000              0.000              0.000
 Translational            0.889              2.981             38.341
 Rotational               0.889              2.981             23.272
 Vibrational             14.889              4.731              2.269
 Vibration     1          0.759              1.488              0.994
 Vibration     2          0.852              1.257              0.666

                       ! Non-Optimized Parameters !

 1\1\GINC-N2095\Freq\RMP2-FC\Aug-CC-pVTZ\H1N1O3\CGAVINH\06-Mar-2022\1\\
 #p freq mp2/aug-cc-pvtz density=current\\title\\0,1\H\O,1,r1\O,2,r2,1,
 a1\N,3,r3,2,a2,1,d1,0\O,4,r4,3,a3,2,d2,0\\r1=0.96828289\r2=1.42673666\
 r3=1.38110764\r4=1.19478846\a1=100.6355057\a2=113.13777052\a3=114.3339
 2022\d1=0.\d2=0.\\Version=ES64L-G16RevB.01\State=1-A'\HF=-279.5072126\
 MP2=-280.4550018\RMSD=4.183e-09\RMSF=5.421e-03\ZeroPoint=0.0229518\The
 rmal=0.0265591\Dipole=-0.1108297,0.,-0.4101755\DipoleDeriv=0.3103533,0
 .,0.0402675,0.,0.3007478,0.,-0.0159865,0.,0.1959404,-0.5268381,0.,0.28

 Normal termination of Gaussian 16 at Sun Mar  6 18:55:27 2022.
