 Gaussian 16, Revision B.01,
 Gaussian 16:  ES64L-G16RevB.01 20-Dec-2017

 ---------------------------------------
 #p freq mp2/aug-cc-pvtz density=current
 ---------------------------------------

 -----
 title
 -----
 Symbolic Z-matrix:
 Charge =  0 Multiplicity = 1

                         Standard orientation:
 ---------------------------------------------------------------------
 Center     Atomic      Atomic             Coordinates (Angstroms)
 Number     Number       Type             X           Y           Z
 ---------------------------------------------------------------------
      1          1           0        1.083844   -0.608663    0.000000
      2          8           0        1.306475    0.351234    0.000000
      3          8           0       -0.000000    0.924557    0.000000
      4          7           0       -0.987327   -0.041178    0.000000
      5          8           0       -0.578045   -1.163678    0.000000
 ---------------------------------------------------------------------

 SCF Done:  E(RHF) =  -279.506038855     A.U. after   14 cycles
 E2 =    -0.9490779805D+00 EUMP2 =    -0.28045511683514D+03
 E2 =    -0.9490779805D+00 EUMP2 =    -0.28045511683514D+03

 The electronic state is 1-A'.
 Alpha  occ. eigenvalues --  -20.72124 -20.68797 -20.66659 -15.82602  -1.64603
 Alpha  occ. eigenvalues --   -1.50498  -1.29372  -0.96055  -0.83717  -0.75955
 Alpha  occ. eigenvalues --   -0.74092  -0.63591  -0.61950  -0.61796  -0.50551
 Alpha  occ. eigenvalues --   -0.49786
 Alpha virt. eigenvalues --    0.03530   0.05970   0.09503   0.09998   0.11969
 Alpha virt. eigenvalues --    0.12274   0.14979   0.15275   0.17741   0.18001
 Alpha virt. eigenvalues --    0.18963   0.21098   0.21671   0.24395   0.24622

 Mulliken charges:
               1
     1  H    0.273928
     2  O   -0.275775
     3  O    0.037639
     4  N    0.156369
     5  O   -0.192161
 Sum of Mulliken charges =  -0.00000

 Dipole moment (field-independent basis, Debye):
    X=              0.0136    Y=             -1.0829    Z=              0.0000  Tot=              1.0829
 Quadrupole moment (field-independent basis, Debye-Ang):
   XX=            -23.4757   YY=            -22.8596   ZZ=            -21.9290
   XY=             -1.9474   XZ=              0.0000   YZ=              0.0000

  Exact polarizability:  30.693   4.031  29.773   0.000   0.000  17.596
 Approx polarizability:  24.418   0.416  27.674  -0.000  -0.000  15.501

                      1                      2                      3
                     A"                     A'                     A"
 Frequencies --    352.0959               423.2750               529.0462
 Red. masses --      1.5623                 7.1344                 2.8791
 Frc consts  --      0.1141                 0.7531                 0.4748
 IR Inten    --     62.1946                 7.8484                25.0721

                      4                      5                      6
                     A'                     A'                     A'
 Frequencies --    709.5648               838.7370               970.5526
 Red. masses --     13.4577                12.5485                 9.9724
 Frc consts  --      3.9921                 5.2011                 5.5346
 IR Inten    --    213.6104                32.8285                12.5795

                      7                      8                      9
                     A'                     A'                     A'
 Frequencies --   1437.6002              1575.2828              3478.2430
 Red. masses --      1.3308                 5.6779                 1.0636
 Frc consts  --      1.6205                 8.3015                 7.5810
 IR Inten    --     81.8170               147.9301                47.1350

 - Thermochemistry -
 -------------------
 Temperature   298.150 Kelvin.  Pressure   1.00000 Atm.
 Atom     1 has atomic number  1 and mass   1.00783

 Molecular mass:    62.99564 amu.
 Principal axes and moments of inertia in atomic units:
                           1         2         3
     Eigenvalues --    85.40367 218.70156 304.10523
           X            0.79423  -0.60762   0.00000
           Y            0.60762   0.79423   0.00000
           Z            0.00000   0.00000   1.00000
 This molecule is an asymmetric top.
 Rotational symmetry number  1.
 Rotational temperatures (Kelvin)      1.01417     0.39604     0.28482
 Rotational constants (GHZ):          21.13189     8.25207     5.93459
 Zero-point vibrational energy      61693.8 (Joules/Mol)
                                   14.74517 (Kcal/Mol)
 Warning -- explicit consideration of   3 degrees of freedom as
           vibrations may cause significant error
 Vibrational temperatures:    506.59   609.00   761.18  1020.91  1206.76
          (Kelvin)           1396.41  2068.39  2266.48  5004.42

 Zero-point correction=                           0.023498 (Hartree/Particle)
 Thermal correction to Energy=                    0.027408
 Thermal correction to Enthalpy=                  0.028353
 Thermal correction to Gibbs Free Energy=        -0.002448
 Sum of electronic and zero-point Energies=           -280.431619
 Sum of electronic and thermal Energies=              -280.427708
 Sum of electronic and thermal Enthalpies=            -280.426764
 Sum of electronic and thermal Free Energies=         -280.457565

                     E (Thermal)             CV                S
                      KCal/Mol        Cal/Mol-Kelvin    Cal/Mol-Kelvin
 Total                   17.199             12.099             64.826
 Electronic               0.000              0.000              0.000
 Translational            0.889              2.981             38.341
 Rotational               0.889              2.981             23.256
 Vibrational             15.422              6.137              3.229
 Vibration     1          0.729              1.571              1.157
 Vibration     2          0.785              1.420              0.881
 Vibration     3          0.884              1.186              0.589

                       ! Non-Optimized Parameters !

 1\1\GINC-N2218\Freq\RMP2-FC\Aug-CC-pVTZ\H1N1O3\CGAVINH\06-Mar-2022\1\\
 #p freq mp2/aug-cc-pvtz density=current\\title\\0,1\H\O,1,r1\O,2,r2,1,
 a1\N,3,r3,2,a2,1,d1,0\O,4,r4,3,a3,2,d2,0\\r1=0.98537664\r2=1.42673666\
 r3=1.38110764\r4=1.19478846\a1=100.6355057\a2=111.93999751\a3=114.3339
 2022\d1=0.\d2=0.\\Version=ES64L-G16RevB.01\State=1-A'\HF=-279.5060389\
 MP2=-280.4551168\RMSD=4.673e-09\RMSF=2.193e-03\ZeroPoint=0.0234979\The
 rmal=0.0274084\Dipole=-0.1014591,0.,-0.4138051\DipoleDeriv=0.320093,0.
 ,0.0331209,0.,0.2960423,0.,-0.0325976,0.,0.2093322,-0.5181663,0.,0.284

 Normal termination of Gaussian 16 at Sun Mar  6 19:38:57 2022.
