 Gaussian 16, Revision B.01,
 Gaussian 16:  ES64L-G16RevB.01 20-Dec-2017

 ---------------------------------------
 #p freq mp2/aug-cc-pvtz density=current
 ---------------------------------------

 -----
 title
 -----
 Symbolic Z-matrix:
 Charge =  0 Multiplicity = 1

                         Standard orientation:
 ---------------------------------------------------------------------
 Center     Atomic      Atomic             Coordinates (Angstroms)
 Number     Number       Type             X           Y           Z
 ---------------------------------------------------------------------
      1          1           0        1.107534   -0.596409    0.000000
      2          8           0        1.315225    0.366831    0.000000
      3          8           0        0.000000    0.919787    0.000000
      4          7           0       -0.992497   -0.040634    0.000000
      5          8           0       -0.585232   -1.176512    0.000000
 ---------------------------------------------------------------------

 SCF Done:  E(RHF) =  -279.504209417     A.U. after   14 cycles
 E2 =    -0.9508604631D+00 EUMP2 =    -0.28045506988035D+03
 E2 =    -0.9508604631D+00 EUMP2 =    -0.28045506988035D+03

 The electronic state is 1-A'.
 Alpha  occ. eigenvalues --  -20.72250 -20.68666 -20.66933 -15.82795  -1.63800
 Alpha  occ. eigenvalues --   -1.50214  -1.29494  -0.96215  -0.83224  -0.75646
 Alpha  occ. eigenvalues --   -0.73829  -0.63728  -0.61849  -0.61561  -0.50681
 Alpha  occ. eigenvalues --   -0.49826
 Alpha virt. eigenvalues --    0.03514   0.05658   0.09503   0.10031   0.11999
 Alpha virt. eigenvalues --    0.12249   0.14932   0.15201   0.17718   0.18043
 Alpha virt. eigenvalues --    0.18976   0.21101   0.21664   0.24140   0.24614

 Mulliken charges:
               1
     1  H    0.278882
     2  O   -0.273359
     3  O    0.040489
     4  N    0.154300
     5  O   -0.200312
 Sum of Mulliken charges =  -0.00000

 Dipole moment (field-independent basis, Debye):
    X=              0.0795    Y=             -1.0421    Z=              0.0000  Tot=              1.0452
 Quadrupole moment (field-independent basis, Debye-Ang):
   XX=            -23.4007   YY=            -22.9568   ZZ=            -21.9571
   XY=             -2.0004   XZ=              0.0000   YZ=              0.0000

  Exact polarizability:  31.015   4.219  30.116   0.000   0.000  17.653
 Approx polarizability:  24.638   0.495  27.976  -0.000  -0.000  15.569

                      1                      2                      3
                     A"                     A'                     A"
 Frequencies --    359.8555               398.2584               534.0964
 Red. masses --      1.5103                 7.0167                 3.0828
 Frc consts  --      0.1152                 0.6557                 0.5181
 IR Inten    --     64.9911                 8.2434                23.3959

                      4                      5                      6
                     A'                     A'                     A'
 Frequencies --    716.2824               836.7884               968.0304
 Red. masses --     13.0894                12.4740                 9.8919
 Frc consts  --      3.9567                 5.1462                 5.4615
 IR Inten    --    211.5352                35.8285                13.7186

                      7                      8                      9
                     A'                     A'                     A'
 Frequencies --   1423.0379              1514.1921              3486.0345
 Red. masses --      1.5784                 3.4686                 1.0638
 Frc consts  --      1.8832                 4.6856                 7.6167
 IR Inten    --     78.4399               138.9611                42.9943

 - Thermochemistry -
 -------------------
 Temperature   298.150 Kelvin.  Pressure   1.00000 Atm.
 Atom     1 has atomic number  1 and mass   1.00783

 Molecular mass:    62.99564 amu.
 Principal axes and moments of inertia in atomic units:
                           1         2         3
     Eigenvalues --    85.29754 223.08926 308.38680
           X            0.79311  -0.60908   0.00000
           Y            0.60908   0.79311   0.00000
           Z            0.00000   0.00000   1.00000
 This molecule is an asymmetric top.
 Rotational symmetry number  1.
 Rotational temperatures (Kelvin)      1.01543     0.38825     0.28086
 Rotational constants (GHZ):          21.15818     8.08977     5.85220
 Zero-point vibrational energy      61228.3 (Joules/Mol)
                                   14.63392 (Kcal/Mol)
 Warning -- explicit consideration of   3 degrees of freedom as
           vibrations may cause significant error
 Vibrational temperatures:    517.75   573.00   768.45  1030.57  1203.95
          (Kelvin)           1392.78  2047.43  2178.58  5015.63

 Zero-point correction=                           0.023321 (Hartree/Particle)
 Thermal correction to Energy=                    0.027243
 Thermal correction to Enthalpy=                  0.028187
 Thermal correction to Gibbs Free Energy=        -0.002649
 Sum of electronic and zero-point Energies=           -280.431749
 Sum of electronic and thermal Energies=              -280.427827
 Sum of electronic and thermal Enthalpies=            -280.426883
 Sum of electronic and thermal Free Energies=         -280.457719

                     E (Thermal)             CV                S
                      KCal/Mol        Cal/Mol-Kelvin    Cal/Mol-Kelvin
 Total                   17.095             12.138             64.899
 Electronic               0.000              0.000              0.000
 Translational            0.889              2.981             38.341
 Rotational               0.889              2.981             23.288
 Vibrational             15.318              6.176              3.270
 Vibration     1          0.734              1.555              1.123
 Vibration     2          0.765              1.474              0.969
 Vibration     3          0.889              1.175              0.578

                       ! Non-Optimized Parameters !

 1\1\GINC-N2109\Freq\RMP2-FC\Aug-CC-pVTZ\H1N1O3\CGAVINH\06-Mar-2022\1\\
 #p freq mp2/aug-cc-pvtz density=current\\title\\0,1\H\O,1,r1\O,2,r2,1,
 a1\N,3,r3,2,a2,1,d1,0\O,4,r4,3,a3,2,d2,0\\r1=0.98537664\r2=1.42673666\
 r3=1.38110764\r4=1.20668227\a1=100.6355057\a2=113.13777052\a3=114.3339
 2022\d1=0.\d2=0.\\Version=ES64L-G16RevB.01\State=1-A'\HF=-279.5042094\
 MP2=-280.4550699\RMSD=5.186e-09\RMSF=5.260e-03\ZeroPoint=0.0233206\The
 rmal=0.0272426\Dipole=-0.1169883,0.,-0.3942046\DipoleDeriv=0.3171951,0
 .,0.0382707,0.,0.2980015,0.,-0.0238873,0.,0.2008464,-0.5292314,0.,0.28

 Normal termination of Gaussian 16 at Sun Mar  6 19:17:33 2022.
