 Gaussian 16, Revision B.01,
 Gaussian 16:  ES64L-G16RevB.01 20-Dec-2017

 ---------------------------------------
 #p freq mp2/aug-cc-pvtz density=current
 ---------------------------------------

 -----
 title
 -----
 Symbolic Z-matrix:
 Charge =  0 Multiplicity = 1

                         Standard orientation:
 ---------------------------------------------------------------------
 Center     Atomic      Atomic             Coordinates (Angstroms)
 Number     Number       Type             X           Y           Z
 ---------------------------------------------------------------------
      1          1           0        1.106789   -0.609348    0.000000
      2          8           0        1.315877    0.365955    0.000000
      3          8           0       -0.000000    0.917358    0.000000
      4          7           0       -0.991362   -0.044234    0.000000
      5          8           0       -0.586784   -1.168439    0.000000
 ---------------------------------------------------------------------

 SCF Done:  E(RHF) =  -279.505591311     A.U. after   14 cycles
 E2 =    -0.9495388749D+00 EUMP2 =    -0.28045513018565D+03
 E2 =    -0.9495388749D+00 EUMP2 =    -0.28045513018565D+03

 The electronic state is 1-A'.
 Alpha  occ. eigenvalues --  -20.71962 -20.68740 -20.66866 -15.82602  -1.64409
 Alpha  occ. eigenvalues --   -1.50415  -1.29160  -0.95963  -0.83417  -0.75878
 Alpha  occ. eigenvalues --   -0.73978  -0.63462  -0.61839  -0.61812  -0.50484
 Alpha  occ. eigenvalues --   -0.49700
 Alpha virt. eigenvalues --    0.03497   0.06019   0.09519   0.10034   0.11981
 Alpha virt. eigenvalues --    0.12263   0.14911   0.15194   0.17773   0.18039
 Alpha virt. eigenvalues --    0.18982   0.21086   0.21658   0.24294   0.24639

 Mulliken charges:
               1
     1  H    0.284549
     2  O   -0.281861
     3  O    0.037947
     4  N    0.154773
     5  O   -0.195408
 Sum of Mulliken charges =  -0.00000

 Dipole moment (field-independent basis, Debye):
    X=              0.0479    Y=             -1.1051    Z=              0.0000  Tot=              1.1061
 Quadrupole moment (field-independent basis, Debye-Ang):
   XX=            -23.3962   YY=            -22.9244   ZZ=            -21.9484
   XY=             -1.9852   XZ=              0.0000   YZ=              0.0000

  Exact polarizability:  30.997   4.141  29.940   0.000   0.000  17.648
 Approx polarizability:  24.625   0.540  27.765  -0.000  -0.000  15.533

                      1                      2                      3
                     A'                     A"                     A"
 Frequencies --    400.0009               444.6313               587.0316
 Red. masses --      7.1634                 4.1166                 1.3468
 Frc consts  --      0.6753                 0.4795                 0.2734
 IR Inten    --      7.6657                20.8696                66.2871

                      4                      5                      6
                     A'                     A'                     A'
 Frequencies --    712.3408               836.0805               974.5320
 Red. masses --     13.5895                12.2286                10.4685
 Frc consts  --      4.0629                 5.0364                 5.8577
 IR Inten    --    215.7980                30.5768                11.1320

                      7                      8                      9
                     A'                     A'                     A'
 Frequencies --   1451.4233              1574.0770              3336.7499
 Red. masses --      1.3514                 5.2390                 1.0633
 Frc consts  --      1.6773                 7.6481                 6.9749
 IR Inten    --     82.2553               152.8663                44.2422

 - Thermochemistry -
 -------------------
 Temperature   298.150 Kelvin.  Pressure   1.00000 Atm.
 Atom     1 has atomic number  1 and mass   1.00783

 Molecular mass:    62.99564 amu.
 Principal axes and moments of inertia in atomic units:
                           1         2         3
     Eigenvalues --    84.59422 222.57381 307.16803
           X            0.79616  -0.60509   0.00000
           Y            0.60509   0.79616   0.00000
           Z            0.00000   0.00000   1.00000
 This molecule is an asymmetric top.
 Rotational symmetry number  1.
 Rotational temperatures (Kelvin)      1.02388     0.38915     0.28198
 Rotational constants (GHZ):          21.33410     8.10851     5.87542
 Zero-point vibrational energy      61708.6 (Joules/Mol)
                                   14.74870 (Kcal/Mol)
 Warning -- explicit consideration of   3 degrees of freedom as
           vibrations may cause significant error
 Vibrational temperatures:    575.51   639.73   844.61  1024.90  1202.93
          (Kelvin)           1402.13  2088.27  2264.75  4800.84

 Zero-point correction=                           0.023504 (Hartree/Particle)
 Thermal correction to Energy=                    0.027308
 Thermal correction to Enthalpy=                  0.028252
 Thermal correction to Gibbs Free Energy=        -0.002375
 Sum of electronic and zero-point Energies=           -280.431627
 Sum of electronic and thermal Energies=              -280.427822
 Sum of electronic and thermal Enthalpies=            -280.426878
 Sum of electronic and thermal Free Energies=         -280.457505

                     E (Thermal)             CV                S
                      KCal/Mol        Cal/Mol-Kelvin    Cal/Mol-Kelvin
 Total                   17.136             11.815             64.460
 Electronic               0.000              0.000              0.000
 Translational            0.889              2.981             38.341
 Rotational               0.889              2.981             23.274
 Vibrational             15.358              5.854              2.846
 Vibration     1          0.766              1.470              0.963
 Vibration     2          0.804              1.373              0.812
 Vibration     3          0.944              1.059              0.473

                       ! Non-Optimized Parameters !

 1\1\GINC-N2218\Freq\RMP2-FC\Aug-CC-pVTZ\H1N1O3\CGAVINH\06-Mar-2022\1\\
 #p freq mp2/aug-cc-pvtz density=current\\title\\0,1\H\O,1,r1\O,2,r2,1,
 a1\N,3,r3,2,a2,1,d1,0\O,4,r4,3,a3,2,d2,0\\r1=0.99746374\r2=1.42673666\
 r3=1.38110764\r4=1.19478846\a1=100.6355057\a2=113.13777052\a3=114.3339
 2022\d1=0.\d2=0.\\Version=ES64L-G16RevB.01\State=1-A'\HF=-279.5055913\
 MP2=-280.4551302\RMSD=4.593e-09\RMSF=3.415e-03\ZeroPoint=0.0235036\The
 rmal=0.0273078\Dipole=-0.1095494,0.,-0.4211664\DipoleDeriv=0.3215696,0
 .,0.0361125,0.,0.2962042,0.,-0.0304939,0.,0.2026391,-0.5292754,0.,0.28

 Normal termination of Gaussian 16 at Sun Mar  6 18:50:40 2022.
