 Gaussian 16, Revision B.01,
 Gaussian 16:  ES64L-G16RevB.01 20-Dec-2017

 ---------------------------------------
 #p freq mp2/aug-cc-pvtz density=current
 ---------------------------------------

 -----
 title
 -----
 Symbolic Z-matrix:
 Charge =  0 Multiplicity = 1

                         Standard orientation:
 ---------------------------------------------------------------------
 Center     Atomic      Atomic             Coordinates (Angstroms)
 Number     Number       Type             X           Y           Z
 ---------------------------------------------------------------------
      1          1           0        1.110370   -0.599110    0.000000
      2          8           0        1.316258    0.364518    0.000000
      3          8           0       -0.000000    0.915010    0.000000
      4          7           0       -0.990697   -0.047267    0.000000
      5          8           0       -0.588195   -1.163280    0.000000
 ---------------------------------------------------------------------

 SCF Done:  E(RHF) =  -279.507770292     A.U. after   14 cycles
 E2 =    -0.9473721626D+00 EUMP2 =    -0.28045514245412D+03
 E2 =    -0.9473721626D+00 EUMP2 =    -0.28045514245412D+03

 The electronic state is 1-A'.
 Alpha  occ. eigenvalues --  -20.71787 -20.68768 -20.66754 -15.82465  -1.64913
 Alpha  occ. eigenvalues --   -1.50705  -1.29294  -0.95910  -0.83651  -0.76076
 Alpha  occ. eigenvalues --   -0.74133  -0.63745  -0.62029  -0.61885  -0.50316
 Alpha  occ. eigenvalues --   -0.49696
 Alpha virt. eigenvalues --    0.03502   0.06287   0.09515   0.10045   0.11953
 Alpha virt. eigenvalues --    0.12268   0.14932   0.15206   0.17779   0.18028
 Alpha virt. eigenvalues --    0.18980   0.21101   0.21675   0.24335   0.24651

 Mulliken charges:
               1
     1  H    0.277206
     2  O   -0.274790
     3  O    0.036000
     4  N    0.153724
     5  O   -0.192141
 Sum of Mulliken charges =  -0.00000

 Dipole moment (field-independent basis, Debye):
    X=              0.0319    Y=             -1.1318    Z=              0.0000  Tot=              1.1323
 Quadrupole moment (field-independent basis, Debye-Ang):
   XX=            -23.3633   YY=            -22.9305   ZZ=            -21.9167
   XY=             -1.9549   XZ=              0.0000   YZ=              0.0000

  Exact polarizability:  30.857   4.087  29.678   0.000   0.000  17.596
 Approx polarizability:  24.509   0.535  27.442  -0.000  -0.000  15.476

                      1                      2                      3
                     A"                     A'                     A"
 Frequencies --    348.7943               396.0890               515.0712
 Red. masses --      1.5998                 7.0946                 2.7740
 Frc consts  --      0.1147                 0.6558                 0.4336
 IR Inten    --     60.9236                 7.4248                27.3141

                      4                      5                      6
                     A'                     A'                     A'
 Frequencies --    708.0422               836.6989               972.8402
 Red. masses --     13.5203                12.2970                 9.6827
 Frc consts  --      3.9935                 5.0721                 5.3992
 IR Inten    --    220.9950                27.3802                12.1393

                      7                      8                      9
                     A'                     A'                     A'
 Frequencies --   1438.0040              1615.9855              3488.5848
 Red. masses --      1.2464                 8.3408                 1.0637
 Frc consts  --      1.5185                12.8331                 7.6275
 IR Inten    --     81.4018               157.9864                42.4934

 - Thermochemistry -
 -------------------
 Temperature   298.150 Kelvin.  Pressure   1.00000 Atm.
 Atom     1 has atomic number  1 and mass   1.00783

 Molecular mass:    62.99564 amu.
 Principal axes and moments of inertia in atomic units:
                           1         2         3
     Eigenvalues --    83.98362 222.27589 306.25952
           X            0.79855  -0.60193   0.00000
           Y            0.60193   0.79855   0.00000
           Z            0.00000   0.00000   1.00000
 This molecule is an asymmetric top.
 Rotational symmetry number  1.
 Rotational temperatures (Kelvin)      1.03132     0.38967     0.28281
 Rotational constants (GHZ):          21.48920     8.11937     5.89285
 Zero-point vibrational energy      61728.0 (Joules/Mol)
                                   14.75334 (Kcal/Mol)
 Warning -- explicit consideration of   3 degrees of freedom as
           vibrations may cause significant error
 Vibrational temperatures:    501.84   569.88   741.07  1018.71  1203.82
          (Kelvin)           1399.70  2068.97  2325.04  5019.30

 Zero-point correction=                           0.023511 (Hartree/Particle)
 Thermal correction to Energy=                    0.027461
 Thermal correction to Enthalpy=                  0.028405
 Thermal correction to Gibbs Free Energy=        -0.002467
 Sum of electronic and zero-point Energies=           -280.431632
 Sum of electronic and thermal Energies=              -280.427682
 Sum of electronic and thermal Enthalpies=            -280.426738
 Sum of electronic and thermal Free Energies=         -280.457610

                     E (Thermal)             CV                S
                      KCal/Mol        Cal/Mol-Kelvin    Cal/Mol-Kelvin
 Total                   17.232             12.191             64.976
 Electronic               0.000              0.000              0.000
 Translational            0.889              2.981             38.341
 Rotational               0.889              2.981             23.262
 Vibrational             15.454              6.229              3.373
 Vibration     1          0.726              1.578              1.172
 Vibration     2          0.763              1.479              0.977
 Vibration     3          0.870              1.217              0.621

                       ! Non-Optimized Parameters !

 1\1\GINC-N2228\Freq\RMP2-FC\Aug-CC-pVTZ\H1N1O3\CGAVINH\06-Mar-2022\1\\
 #p freq mp2/aug-cc-pvtz density=current\\title\\0,1\H\O,1,r1\O,2,r2,1,
 a1\N,3,r3,2,a2,1,d1,0\O,4,r4,3,a3,2,d2,0\\r1=0.98537664\r2=1.42673666\
 r3=1.38110764\r4=1.18637827\a1=100.6355057\a2=113.13777052\a3=114.3339
 2022\d1=0.\d2=0.\\Version=ES64L-G16RevB.01\State=1-A'\HF=-279.5077703\
 MP2=-280.4551425\RMSD=3.611e-09\RMSF=4.240e-03\ZeroPoint=0.0235109\The
 rmal=0.0274607\Dipole=-0.1053274,0.,-0.4328364\DipoleDeriv=0.3166781,0
 .,0.0376616,0.,0.2980979,0.,-0.0248667,0.,0.1990642,-0.527668,0.,0.278

 Normal termination of Gaussian 16 at Sun Mar  6 19:21:06 2022.
