 Gaussian 16, Revision B.01,
 Gaussian 16:  ES64L-G16RevB.01 20-Dec-2017

 ---------------------------------------
 #p freq mp2/aug-cc-pvtz density=current
 ---------------------------------------

 -----
 title
 -----
 Symbolic Z-matrix:
 Charge =  0 Multiplicity = 1

                         Standard orientation:
 ---------------------------------------------------------------------
 Center     Atomic      Atomic             Coordinates (Angstroms)
 Number     Number       Type             X           Y           Z
 ---------------------------------------------------------------------
      1          1           0        1.113039   -0.594339   -0.000000
      2          8           0        1.317227    0.369649    0.000000
      3          8           0        0.000000    0.917820    0.000000
      4          7           0       -0.988998   -0.046204   -0.000000
      5          8           0       -0.590983   -1.172749   -0.000000
 ---------------------------------------------------------------------

 SCF Done:  E(RHF) =  -279.506423902     A.U. after   14 cycles
 E2 =    -0.9487925472D+00 EUMP2 =    -0.28045521644873D+03
 E2 =    -0.9487925472D+00 EUMP2 =    -0.28045521644873D+03

 The electronic state is 1-A'.
 Alpha  occ. eigenvalues --  -20.72029 -20.68749 -20.66859 -15.82572  -1.64370
 Alpha  occ. eigenvalues --   -1.50581  -1.29398  -0.96050  -0.83409  -0.75883
 Alpha  occ. eigenvalues --   -0.73989  -0.63804  -0.61918  -0.61870  -0.50387
 Alpha  occ. eigenvalues --   -0.49778
 Alpha virt. eigenvalues --    0.03503   0.06052   0.09511   0.10045   0.11973
 Alpha virt. eigenvalues --    0.12263   0.14917   0.15196   0.17760   0.18035
 Alpha virt. eigenvalues --    0.18969   0.21105   0.21672   0.24257   0.24635

 Mulliken charges:
               1
     1  H    0.278149
     2  O   -0.274175
     3  O    0.037817
     4  N    0.154215
     5  O   -0.196007
 Sum of Mulliken charges =  -0.00000

 Dipole moment (field-independent basis, Debye):
    X=              0.0631    Y=             -1.0947    Z=             -0.0000  Tot=              1.0965
 Quadrupole moment (field-independent basis, Debye-Ang):
   XX=            -23.3888   YY=            -22.9457   ZZ=            -21.9352
   XY=             -1.9700   XZ=             -0.0000   YZ=             -0.0000

  Exact polarizability:  30.937   4.180  29.917   0.000   0.000  17.629
 Approx polarizability:  24.539   0.569  27.721   0.000   0.000  15.520

                      1                      2                      3
                     A"                     A'                     A"
 Frequencies --    352.7596               390.4102               520.6043
 Red. masses --      1.5611                 7.0892                 2.8973
 Frc consts  --      0.1145                 0.6366                 0.4627
 IR Inten    --     62.7846                 7.7051                25.6060

                      4                      5                      6
                     A'                     A'                     A'
 Frequencies --    707.9882               837.8581               969.6639
 Red. masses --     13.2684                12.3865                 9.8505
 Frc consts  --      3.9185                 5.1232                 5.4569
 IR Inten    --    216.5045                32.3516                13.1078

                      7                      8                      9
                     A'                     A'                     A'
 Frequencies --   1436.4355              1569.8150              3488.5564
 Red. masses --      1.3045                 6.3796                 1.0639
 Frc consts  --      1.5859                 9.2627                 7.6285
 IR Inten    --     79.5081               151.2576                41.9460

 - Thermochemistry -
 -------------------
 Temperature   298.150 Kelvin.  Pressure   1.00000 Atm.
 Atom     1 has atomic number  1 and mass   1.00783

 Molecular mass:    62.99564 amu.
 Principal axes and moments of inertia in atomic units:
                           1         2         3
     Eigenvalues --    84.32435 223.86911 308.19346
           X            0.79426  -0.60758   0.00000
           Y            0.60758   0.79426   0.00000
           Z            0.00000  -0.00000   1.00000
 This molecule is an asymmetric top.
 Rotational symmetry number  1.
 Rotational temperatures (Kelvin)      1.02715     0.38690     0.28104
 Rotational constants (GHZ):          21.40237     8.06159     5.85587
 Zero-point vibrational energy      61452.7 (Joules/Mol)
                                   14.68755 (Kcal/Mol)
 Warning -- explicit consideration of   3 degrees of freedom as
           vibrations may cause significant error
 Vibrational temperatures:    507.54   561.71   749.03  1018.64  1205.49
          (Kelvin)           1395.13  2066.71  2258.61  5019.25

 Zero-point correction=                           0.023406 (Hartree/Particle)
 Thermal correction to Energy=                    0.027354
 Thermal correction to Enthalpy=                  0.028298
 Thermal correction to Gibbs Free Energy=        -0.002579
 Sum of electronic and zero-point Energies=           -280.431810
 Sum of electronic and thermal Energies=              -280.427862
 Sum of electronic and thermal Enthalpies=            -280.426918
 Sum of electronic and thermal Free Energies=         -280.457795

                     E (Thermal)             CV                S
                      KCal/Mol        Cal/Mol-Kelvin    Cal/Mol-Kelvin
 Total                   17.165             12.194             64.986
 Electronic               0.000              0.000              0.000
 Translational            0.889              2.981             38.341
 Rotational               0.889              2.981             23.280
 Vibrational             15.388              6.233              3.366
 Vibration     1          0.729              1.570              1.154
 Vibration     2          0.758              1.491              0.999
 Vibration     3          0.876              1.204              0.609

                       ! Non-Optimized Parameters !

 1\1\GINC-N2398\Freq\RMP2-FC\Aug-CC-pVTZ\H1N1O3\CGAVINH\06-Mar-2022\1\\
 #p freq mp2/aug-cc-pvtz density=current\\title\\0,1\H\O,1,r1\O,2,r2,1,
 a1\N,3,r3,2,a2,1,d1,0\O,4,r4,3,a3,2,d2,0\\r1=0.98537664\r2=1.42673666\
 r3=1.38110764\r4=1.19478846\a1=100.6355057\a2=113.13777052\a3=114.8087
 4808\d1=0.\d2=0.\\Version=ES64L-G16RevB.01\State=1-A'\HF=-279.5064239\
 MP2=-280.4552164\RMSD=4.376e-09\RMSF=1.112e-03\ZeroPoint=0.0234061\The
 rmal=0.0273541\Dipole=-0.1135382,0.,-0.4161804\DipoleDeriv=0.3157798,0
 .,0.0385429,0.,0.2982506,0.,-0.0231495,0.,0.1980541,-0.529318,0.,0.280

 Normal termination of Gaussian 16 at Sun Mar  6 19:40:48 2022.
