 Gaussian 16, Revision B.01,
 Gaussian 16:  ES64L-G16RevB.01 20-Dec-2017

 ---------------------------------------
 #p freq mp2/aug-cc-pvtz density=current
 ---------------------------------------

 -----
 title
 -----
 Symbolic Z-matrix:
 Charge =  0 Multiplicity = 1

                         Standard orientation:
 ---------------------------------------------------------------------
 Center     Atomic      Atomic             Coordinates (Angstroms)
 Number     Number       Type             X           Y           Z
 ---------------------------------------------------------------------
      1          1           0        1.553528    1.679993   -0.000000
      2          8           0        1.454267    0.716115   -0.000000
      3          8           0        0.000000    0.672564   -0.000000
      4          7           0       -0.267900   -0.761410    0.000000
      5          8           0       -1.414046   -0.932444    0.000000
 ---------------------------------------------------------------------

 SCF Done:  E(RHF) =  -279.503486008     A.U. after   14 cycles
 E2 =    -0.9430284995D+00 EUMP2 =    -0.28044651450719D+03
 E2 =    -0.9430284995D+00 EUMP2 =    -0.28044651450719D+03

 The electronic state is 1-A'.
 Alpha  occ. eigenvalues --  -20.68806 -20.68480 -20.65845 -15.81110  -1.63392
 Alpha  occ. eigenvalues --   -1.49578  -1.25320  -0.94646  -0.77428  -0.76236
 Alpha  occ. eigenvalues --   -0.71443  -0.68072  -0.62274  -0.58862  -0.48419
 Alpha  occ. eigenvalues --   -0.47015
 Alpha virt. eigenvalues --    0.02995   0.07535   0.08574   0.10172   0.13373
 Alpha virt. eigenvalues --    0.13411   0.14434   0.15482   0.17848   0.19403
 Alpha virt. eigenvalues --    0.20026   0.20638   0.22120   0.23645   0.23747

 Mulliken charges:
               1
     1  H    0.249852
     2  O   -0.202561
     3  O   -0.149820
     4  N    0.292916
     5  O   -0.190388
 Sum of Mulliken charges =  -0.00000

 Dipole moment (field-independent basis, Debye):
    X=              0.4624    Y=              1.3078    Z=             -0.0000  Tot=              1.3871
 Quadrupole moment (field-independent basis, Debye-Ang):
   XX=            -22.4051   YY=            -18.6158   ZZ=            -21.9906
   XY=              3.2968   XZ=              0.0000   YZ=              0.0000

  Exact polarizability:  33.877   9.343  30.096  -0.000  -0.000  17.906
 Approx polarizability:  28.751   5.013  23.420  -0.000  -0.000  15.471

 ******    1 imaginary frequencies (negative Signs) ******

                      1                      2                      3
                     A"                     A"                     A'
 Frequencies --   -267.7368               181.8380               330.8056
 Red. masses --      1.1558                 9.2663                 8.7593
 Frc consts  --      0.0488                 0.1805                 0.5648
 IR Inten    --    123.6810                 1.7972                 2.4707

                      4                      5                      6
                     A'                     A'                     A'
 Frequencies --    458.5922               784.3883               968.5088
 Red. masses --     12.1593                12.6473                15.4060
 Frc consts  --      1.5067                 4.5847                 8.5143
 IR Inten    --    200.7033               171.4202                21.0057

                      7                      8                      9
                     A'                     A'                     A'
 Frequencies --   1372.0188              1755.3102              3778.5896
 Red. masses --      1.1295                13.9311                 1.0675
 Frc consts  --      1.2527                25.2896                 8.9804
 IR Inten    --    147.6648               168.5963                81.6324

 - Thermochemistry -
 -------------------
 Temperature   298.150 Kelvin.  Pressure   1.00000 Atm.
 Atom     1 has atomic number  1 and mass   1.00783

 Molecular mass:    62.99564 amu.
 Principal axes and moments of inertia in atomic units:
                           1         2         3
     Eigenvalues --    32.79260 358.13972 390.93232
           X            0.81170  -0.58407   0.00000
           Y            0.58407   0.81170   0.00000
           Z            0.00000  -0.00000   1.00000
 This molecule is an asymmetric top.
 Rotational symmetry number  1.
 Rotational temperatures (Kelvin)      2.64126     0.24184     0.22156
 Rotational constants (GHZ):          55.03502     5.03921     4.61651
    1 imaginary frequencies ignored.
 Zero-point vibrational energy      57600.5 (Joules/Mol)
                                   13.76685 (Kcal/Mol)
 Warning -- explicit consideration of   3 degrees of freedom as
           vibrations may cause significant error
 Vibrational temperatures:    261.62   475.96   659.81  1128.56  1393.47
          (Kelvin)           1974.03  2525.50  5436.55

 Zero-point correction=                           0.021939 (Hartree/Particle)
 Thermal correction to Energy=                    0.026135
 Thermal correction to Enthalpy=                  0.027080
 Thermal correction to Gibbs Free Energy=        -0.004313
 Sum of electronic and zero-point Energies=           -280.424576
 Sum of electronic and thermal Energies=              -280.420379
 Sum of electronic and thermal Enthalpies=            -280.419435
 Sum of electronic and thermal Free Energies=         -280.450828

                     E (Thermal)             CV                S
                      KCal/Mol        Cal/Mol-Kelvin    Cal/Mol-Kelvin
 Total                   16.400             12.018             66.072
 Electronic               0.000              0.000              0.000
 Translational            0.889              2.981             38.341
 Rotational               0.889              2.981             23.044
 Vibrational             14.623              6.056              4.687
 Vibration     1          0.630              1.864              2.309
 Vibration     2          0.713              1.614              1.256
 Vibration     3          0.817              1.342              0.770

                       ! Non-Optimized Parameters !

 1\1\GINC-N2128\Freq\RMP2-FC\Aug-CC-pVTZ\H1N1O3\CGAVINH\21-Feb-2022\1\\
 #p freq mp2/aug-cc-pvtz density=current\\title\\0,1\H\O,1,r1\O,2,r2,1,
 a1\N,3,r3,2,a2,1,d1,0\O,4,r4,3,a3,2,d2,0\\r1=0.96897556\r2=1.45491931\
 r3=1.45878406\r4=1.1588375\a1=97.59494903\a2=102.29752444\a3=109.06955
 123\d1=180.\d2=180.\\Version=ES64L-G16RevB.01\State=1-A'\HF=-279.50348
 6\MP2=-280.4465145\RMSD=3.480e-09\RMSF=6.873e-03\ZeroPoint=0.0219389\T
 hermal=0.0261354\Dipole=-0.1282576,0.,-0.5304483\DipoleDeriv=0.2663295
 ,0.,0.0481017,0.,0.3551539,0.,0.0813536,0.,0.2741812,-0.325858,0.,-0.2

 Normal termination of Gaussian 16 at Mon Feb 21 20:34:08 2022.
