 Gaussian 16, Revision B.01,
 Gaussian 16:  ES64L-G16RevB.01 20-Dec-2017

 ---------------------------------------
 #p freq mp2/aug-cc-pvtz density=current
 ---------------------------------------

 -----
 title
 -----
 Symbolic Z-matrix:
 Charge =  0 Multiplicity = 1

                         Standard orientation:
 ---------------------------------------------------------------------
 Center     Atomic      Atomic             Coordinates (Angstroms)
 Number     Number       Type             X           Y           Z
 ---------------------------------------------------------------------
      1          1           0        1.116883   -0.590685   -0.000000
      2          8           0        1.318617    0.373821   -0.000000
      3          8           0        0.000000    0.918638    0.000000
      4          7           0       -0.986542   -0.047899    0.000000
      5          8           0       -0.595003   -1.176711   -0.000000
 ---------------------------------------------------------------------

 SCF Done:  E(RHF) =  -279.506369074     A.U. after   14 cycles
 E2 =    -0.9487791336D+00 EUMP2 =    -0.28045514820730D+03
 E2 =    -0.9487791336D+00 EUMP2 =    -0.28045514820730D+03

 The electronic state is 1-A'.
 Alpha  occ. eigenvalues --  -20.72077 -20.68772 -20.66889 -15.82541  -1.64311
 Alpha  occ. eigenvalues --   -1.50646  -1.29419  -0.96065  -0.83348  -0.75873
 Alpha  occ. eigenvalues --   -0.73982  -0.63870  -0.61961  -0.61900  -0.50302
 Alpha  occ. eigenvalues --   -0.49804
 Alpha virt. eigenvalues --    0.03498   0.06079   0.09511   0.10052   0.11974
 Alpha virt. eigenvalues --    0.12267   0.14901   0.15189   0.17767   0.18036
 Alpha virt. eigenvalues --    0.18959   0.21109   0.21673   0.24259   0.24635

 Mulliken charges:
               1
     1  H    0.278341
     2  O   -0.274160
     3  O    0.037733
     4  N    0.154391
     5  O   -0.196305
 Sum of Mulliken charges =  -0.00000

 Dipole moment (field-independent basis, Debye):
    X=              0.0744    Y=             -1.0954    Z=             -0.0000  Tot=              1.0979
 Quadrupole moment (field-independent basis, Debye-Ang):
   XX=            -23.3989   YY=            -22.9493   ZZ=            -21.9370
   XY=             -1.9660   XZ=              0.0000   YZ=             -0.0000

  Exact polarizability:  30.954   4.217  29.978  -0.000   0.000  17.639
 Approx polarizability:  24.517   0.620  27.783  -0.000   0.000  15.524

                      1                      2                      3
                     A"                     A'                     A"
 Frequencies --    351.7348               383.7481               517.6661
 Red. masses --      1.5656                 7.1172                 2.8837
 Frc consts  --      0.1141                 0.6175                 0.4553
 IR Inten    --     62.7534                 7.6413                25.7201

                      4                      5                      6
                     A'                     A'                     A'
 Frequencies --    704.4390               838.8240               968.3724
 Red. masses --     13.2019                12.3956                 9.9357
 Frc consts  --      3.8599                 5.1388                 5.4895
 IR Inten    --    215.8105                33.9086                13.4643

                      7                      8                      9
                     A'                     A'                     A'
 Frequencies --   1438.8802              1569.2308              3489.5501
 Red. masses --      1.3034                 6.3550                 1.0640
 Frc consts  --      1.5899                 9.2202                 7.6337
 IR Inten    --     79.0805               152.2510                41.1660

 - Thermochemistry -
 -------------------
 Temperature   298.150 Kelvin.  Pressure   1.00000 Atm.
 Atom     1 has atomic number  1 and mass   1.00783

 Molecular mass:    62.99564 amu.
 Principal axes and moments of inertia in atomic units:
                           1         2         3
     Eigenvalues --    84.11611 225.13410 309.25021
           X            0.79224  -0.61021   0.00000
           Y            0.61021   0.79224   0.00000
           Z            0.00000  -0.00000   1.00000
 This molecule is an asymmetric top.
 Rotational symmetry number  1.
 Rotational temperatures (Kelvin)      1.02969     0.38472     0.28008
 Rotational constants (GHZ):          21.45536     8.01629     5.83586
 Zero-point vibrational energy      61383.1 (Joules/Mol)
                                   14.67090 (Kcal/Mol)
 Warning -- explicit consideration of   3 degrees of freedom as
           vibrations may cause significant error
 Vibrational temperatures:    506.07   552.13   744.81  1013.53  1206.88
          (Kelvin)           1393.27  2070.23  2257.77  5020.68

 Zero-point correction=                           0.023380 (Hartree/Particle)
 Thermal correction to Energy=                    0.027339
 Thermal correction to Enthalpy=                  0.028283
 Thermal correction to Gibbs Free Energy=        -0.002617
 Sum of electronic and zero-point Energies=           -280.431769
 Sum of electronic and thermal Energies=              -280.427809
 Sum of electronic and thermal Enthalpies=            -280.426865
 Sum of electronic and thermal Free Energies=         -280.457765

                     E (Thermal)             CV                S
                      KCal/Mol        Cal/Mol-Kelvin    Cal/Mol-Kelvin
 Total                   17.155             12.223             65.034
 Electronic               0.000              0.000              0.000
 Translational            0.889              2.981             38.341
 Rotational               0.889              2.981             23.286
 Vibrational             15.378              6.262              3.407
 Vibration     1          0.728              1.572              1.158
 Vibration     2          0.753              1.505              1.024
 Vibration     3          0.873              1.211              0.615

                       ! Non-Optimized Parameters !

 1\1\GINC-N2228\Freq\RMP2-FC\Aug-CC-pVTZ\H1N1O3\CGAVINH\06-Mar-2022\1\\
 #p freq mp2/aug-cc-pvtz density=current\\title\\0,1\H\O,1,r1\O,2,r2,1,
 a1\N,3,r3,2,a2,1,d1,0\O,4,r4,3,a3,2,d2,0\\r1=0.98537664\r2=1.42673666\
 r3=1.38110764\r4=1.19478846\a1=100.6355057\a2=113.13777052\a3=115.2835
 7593\d1=0.\d2=0.\\Version=ES64L-G16RevB.01\State=1-A'\HF=-279.5063691\
 MP2=-280.4551482\RMSD=4.327e-09\RMSF=2.137e-03\ZeroPoint=0.0233796\The
 rmal=0.0273388\Dipole=-0.1168791,0.,-0.4158416\DipoleDeriv=0.3146706,0
 .,0.0392072,0.,0.2984357,0.,-0.0218408,0.,0.1962173,-0.5305307,0.,0.27

 Normal termination of Gaussian 16 at Sun Mar  6 19:42:55 2022.
