 Gaussian 16, Revision B.01,
 Gaussian 16:  ES64L-G16RevB.01 20-Dec-2017

 ---------------------------------------
 #p freq mp2/aug-cc-pvtz density=current
 ---------------------------------------

 -----
 title
 -----
 Symbolic Z-matrix:
 Charge =  0 Multiplicity = 1

                         Standard orientation:
 ---------------------------------------------------------------------
 Center     Atomic      Atomic             Coordinates (Angstroms)
 Number     Number       Type             X           Y           Z
 ---------------------------------------------------------------------
      1          1           0        1.100671   -0.587859    0.000000
      2          8           0        1.302610    0.376604    0.000000
      3          8           0       -0.000000    0.915130    0.000000
      4          7           0       -0.986747   -0.051198    0.000000
      5          8           0       -0.576790   -1.173453    0.000000
 ---------------------------------------------------------------------

 SCF Done:  E(RHF) =  -279.507291761     A.U. after   14 cycles
 E2 =    -0.9478027134D+00 EUMP2 =    -0.28045509447467D+03
 E2 =    -0.9478027134D+00 EUMP2 =    -0.28045509447467D+03

 The electronic state is 1-A'.
 Alpha  occ. eigenvalues --  -20.71991 -20.68752 -20.66666 -15.82577  -1.64723
 Alpha  occ. eigenvalues --   -1.51106  -1.29156  -0.96133  -0.83786  -0.76018
 Alpha  occ. eigenvalues --   -0.74248  -0.63495  -0.62273  -0.62017  -0.50532
 Alpha  occ. eigenvalues --   -0.49454
 Alpha virt. eigenvalues --    0.03526   0.06017   0.09514   0.10055   0.11959
 Alpha virt. eigenvalues --    0.12295   0.14971   0.15369   0.17748   0.18009
 Alpha virt. eigenvalues --    0.18967   0.21109   0.21688   0.24637   0.25080

 Mulliken charges:
               1
     1  H    0.274983
     2  O   -0.272300
     3  O    0.043048
     4  N    0.150683
     5  O   -0.196414
 Sum of Mulliken charges =  -0.00000

 Dipole moment (field-independent basis, Debye):
    X=              0.0815    Y=             -1.0704    Z=              0.0000  Tot=              1.0735
 Quadrupole moment (field-independent basis, Debye-Ang):
   XX=            -23.3790   YY=            -22.9697   ZZ=            -21.9104
   XY=             -1.9351   XZ=              0.0000   YZ=              0.0000

  Exact polarizability:  30.635   4.240  29.868   0.000   0.000  17.571
 Approx polarizability:  24.219   0.646  27.598  -0.000  -0.000  15.489

                      1                      2                      3
                     A"                     A'                     A"
 Frequencies --    354.1036               399.6536               525.0398
 Red. masses --      1.5685                 7.0340                 2.8695
 Frc consts  --      0.1159                 0.6619                 0.4661
 IR Inten    --     62.0943                 7.9740                25.6568

                      4                      5                      6
                     A'                     A'                     A'
 Frequencies --    715.7720               864.9405               995.2716
 Red. masses --     13.3819                11.4266                10.6152
 Frc consts  --      4.0394                 5.0366                 6.1953
 IR Inten    --    221.6955                30.6875                11.8685

                      7                      8                      9
                     A'                     A'                     A'
 Frequencies --   1449.3490              1574.9274              3480.0423
 Red. masses --      1.3598                 5.3256                 1.0634
 Frc consts  --      1.6829                 7.7829                 7.5880
 IR Inten    --     79.5573               151.9323                43.6069

 - Thermochemistry -
 -------------------
 Temperature   298.150 Kelvin.  Pressure   1.00000 Atm.
 Atom     1 has atomic number  1 and mass   1.00783

 Molecular mass:    62.99564 amu.
 Principal axes and moments of inertia in atomic units:
                           1         2         3
     Eigenvalues --    83.50915 221.33716 304.84631
           X            0.78712  -0.61679   0.00000
           Y            0.61679   0.78712   0.00000
           Z            0.00000   0.00000   1.00000
 This molecule is an asymmetric top.
 Rotational symmetry number  1.
 Rotational temperatures (Kelvin)      1.03718     0.39132     0.28412
 Rotational constants (GHZ):          21.61130     8.15381     5.92017
 Zero-point vibrational energy      61961.2 (Joules/Mol)
                                   14.80908 (Kcal/Mol)
 Warning -- explicit consideration of   3 degrees of freedom as
           vibrations may cause significant error
 Vibrational temperatures:    509.48   575.01   755.42  1029.84  1244.46
          (Kelvin)           1431.97  2085.29  2265.97  5007.00

 Zero-point correction=                           0.023600 (Hartree/Particle)
 Thermal correction to Energy=                    0.027520
 Thermal correction to Enthalpy=                  0.028464
 Thermal correction to Gibbs Free Energy=        -0.002355
 Sum of electronic and zero-point Energies=           -280.431495
 Sum of electronic and thermal Energies=              -280.427574
 Sum of electronic and thermal Enthalpies=            -280.426630
 Sum of electronic and thermal Free Energies=         -280.457450

                     E (Thermal)             CV                S
                      KCal/Mol        Cal/Mol-Kelvin    Cal/Mol-Kelvin
 Total                   17.269             12.072             64.866
 Electronic               0.000              0.000              0.000
 Translational            0.889              2.981             38.341
 Rotational               0.889              2.981             23.248
 Vibrational             15.492              6.111              3.277
 Vibration     1          0.730              1.567              1.148
 Vibration     2          0.766              1.471              0.964
 Vibration     3          0.880              1.195              0.598

                       ! Non-Optimized Parameters !

 1\1\GINC-N2219\Freq\RMP2-FC\Aug-CC-pVTZ\H1N1O3\CGAVINH\06-Mar-2022\1\\
 #p freq mp2/aug-cc-pvtz density=current\\title\\0,1\H\O,1,r1\O,2,r2,1,
 a1\N,3,r3,2,a2,1,d1,0\O,4,r4,3,a3,2,d2,0\\r1=0.98537664\r2=1.40953968\
 r3=1.38110764\r4=1.19478846\a1=100.6355057\a2=113.13777052\a3=114.3339
 2022\d1=0.\d2=0.\\Version=ES64L-G16RevB.01\State=1-A'\HF=-279.5072918\
 MP2=-280.4550945\RMSD=4.128e-09\RMSF=2.974e-03\ZeroPoint=0.0235998\The
 rmal=0.0275203\Dipole=-0.117699,0.,-0.4056013\DipoleDeriv=0.3170987,0.
 ,0.0385526,0.,0.2971902,0.,-0.0300105,0.,0.2017141,-0.5278808,0.,0.299

 Normal termination of Gaussian 16 at Sun Mar  6 19:03:42 2022.
