 Gaussian 16, Revision B.01,
 Gaussian 16:  ES64L-G16RevB.01 20-Dec-2017

 ---------------------------------------
 #p freq mp2/aug-cc-pvtz density=current
 ---------------------------------------

 -----
 title
 -----
 Symbolic Z-matrix:
 Charge =  0 Multiplicity = 1

                         Standard orientation:
 ---------------------------------------------------------------------
 Center     Atomic      Atomic             Coordinates (Angstroms)
 Number     Number       Type             X           Y           Z
 ---------------------------------------------------------------------
      1          1           0        1.579363    1.673756    0.000000
      2          8           0        1.475739    0.710337    0.000000
      3          8           0        0.000000    0.672830    0.000000
      4          7           0       -0.274390   -0.759916   -0.000000
      5          8           0       -1.433068   -0.927460   -0.000000
 ---------------------------------------------------------------------

 SCF Done:  E(RHF) =  -279.499700407     A.U. after   14 cycles
 E2 =    -0.9468058028D+00 EUMP2 =    -0.28044650620994D+03
 E2 =    -0.9468058028D+00 EUMP2 =    -0.28044650620994D+03

 The electronic state is 1-A'.
 Alpha  occ. eigenvalues --  -20.69207 -20.68466 -20.66181 -15.81324  -1.62347
 Alpha  occ. eigenvalues --   -1.48747  -1.25817  -0.94778  -0.77063  -0.75752
 Alpha  occ. eigenvalues --   -0.70998  -0.67939  -0.61843  -0.58639  -0.48896
 Alpha  occ. eigenvalues --   -0.47296
 Alpha virt. eigenvalues --    0.02958   0.07165   0.08537   0.10161   0.13279
 Alpha virt. eigenvalues --    0.13398   0.14397   0.15444   0.17830   0.19437
 Alpha virt. eigenvalues --    0.19989   0.20607   0.21606   0.22877   0.23721

 Mulliken charges:
               1
     1  H    0.251473
     2  O   -0.204169
     3  O   -0.148163
     4  N    0.293425
     5  O   -0.192565
 Sum of Mulliken charges =   0.00000

 Dipole moment (field-independent basis, Debye):
    X=              0.5121    Y=              1.3420    Z=              0.0000  Tot=              1.4364
 Quadrupole moment (field-independent basis, Debye-Ang):
   XX=            -22.3519   YY=            -18.6942   ZZ=            -22.0397
   XY=              3.3217   XZ=              0.0000   YZ=             -0.0000

  Exact polarizability:  34.520   9.504  30.168   0.000   0.000  17.998
 Approx polarizability:  29.643   5.088  23.474   0.000   0.000  15.556

 ******    1 imaginary frequencies (negative Signs) ******

                      1                      2                      3
                     A"                     A"                     A'
 Frequencies --   -277.3258               235.5654               343.7299
 Red. masses --      1.1420                10.2538                 8.7570
 Frc consts  --      0.0517                 0.3352                 0.6096
 IR Inten    --    123.9854                 0.9506                 2.3131

                      4                      5                      6
                     A'                     A'                     A'
 Frequencies --    445.4642               769.7373               927.2000
 Red. masses --     12.1140                13.2800                14.6683
 Frc consts  --      1.4163                 4.6359                 7.4298
 IR Inten    --    198.4897               159.8367                37.1368

                      7                      8                      9
                     A'                     A'                     A'
 Frequencies --   1347.3760              1676.2700              3780.6929
 Red. masses --      1.1323                13.4315                 1.0677
 Frc consts  --      1.2112                22.2363                 8.9915
 IR Inten    --    150.9606               141.7306                81.4515

 - Thermochemistry -
 -------------------
 Temperature   298.150 Kelvin.  Pressure   1.00000 Atm.
 Atom     1 has atomic number  1 and mass   1.00783

 Molecular mass:    62.99564 amu.
 Principal axes and moments of inertia in atomic units:
                           1         2         3
     Eigenvalues --    33.15262 363.76181 396.91443
           X            0.81787  -0.57540   0.00000
           Y            0.57540   0.81787   0.00000
           Z            0.00000  -0.00000   1.00000
 This molecule is an asymmetric top.
 Rotational symmetry number  1.
 Rotational temperatures (Kelvin)      2.61258     0.23811     0.21822
 Rotational constants (GHZ):          54.43737     4.96133     4.54693
    1 imaginary frequencies ignored.
 Zero-point vibrational energy      56978.3 (Joules/Mol)
                                   13.61815 (Kcal/Mol)
 Warning -- explicit consideration of   3 degrees of freedom as
           vibrations may cause significant error
 Vibrational temperatures:    338.93   494.55   640.92  1107.48  1334.03
          (Kelvin)           1938.57  2411.78  5439.57

 Zero-point correction=                           0.021702 (Hartree/Particle)
 Thermal correction to Energy=                    0.025825
 Thermal correction to Enthalpy=                  0.026770
 Thermal correction to Gibbs Free Energy=        -0.004425
 Sum of electronic and zero-point Energies=           -280.424804
 Sum of electronic and thermal Energies=              -280.420681
 Sum of electronic and thermal Enthalpies=            -280.419737
 Sum of electronic and thermal Free Energies=         -280.450931

                     E (Thermal)             CV                S
                      KCal/Mol        Cal/Mol-Kelvin    Cal/Mol-Kelvin
 Total                   16.206             12.039             65.654
 Electronic               0.000              0.000              0.000
 Translational            0.889              2.981             38.341
 Rotational               0.889              2.981             23.086
 Vibrational             14.428              6.077              4.227
 Vibration     1          0.655              1.786              1.836
 Vibration     2          0.722              1.588              1.195
 Vibration     3          0.805              1.371              0.810

                       ! Non-Optimized Parameters !

 1\1\GINC-N2129\Freq\RMP2-FC\Aug-CC-pVTZ\H1N1O3\CGAVINH\21-Feb-2022\1\\
 #p freq mp2/aug-cc-pvtz density=current\\title\\0,1\H\O,1,r1\O,2,r2,1,
 a1\N,3,r3,2,a2,1,d1,0\O,4,r4,3,a3,2,d2,0\\r1=0.96897556\r2=1.47621549\
 r3=1.45878406\r4=1.17072885\a1=97.59494903\a2=102.29752444\a3=109.0695
 5123\d1=180.\d2=180.\\Version=ES64L-G16RevB.01\State=1-A'\HF=-279.4997
 004\MP2=-280.4465062\RMSD=4.008e-09\RMSF=3.614e-03\ZeroPoint=0.0217019
 \Thermal=0.0258254\Dipole=-0.1438593,0.,-0.5465006\DipoleDeriv=0.26597
 48,0.,0.047058,0.,0.3546423,0.,0.0850679,0.,0.2727517,-0.3279048,0.,-0

 Normal termination of Gaussian 16 at Mon Feb 21 20:12:07 2022.
