 Gaussian 16, Revision B.01,
 Gaussian 16:  ES64L-G16RevB.01 20-Dec-2017

 ---------------------------------------
 #p freq mp2/aug-cc-pvtz density=current
 ---------------------------------------

 -----
 title
 -----
 Symbolic Z-matrix:
 Charge =  0 Multiplicity = 1

                         Standard orientation:
 ---------------------------------------------------------------------
 Center     Atomic      Atomic             Coordinates (Angstroms)
 Number     Number       Type             X           Y           Z
 ---------------------------------------------------------------------
      1          1           0        1.110212   -0.598961    0.000000
      2          8           0        1.316201    0.364645    0.000000
      3          8           0        0.000000    0.915275    0.000000
      4          7           0       -0.990797   -0.046899    0.000000
      5          8           0       -0.588030   -1.164014    0.000000
 ---------------------------------------------------------------------

 SCF Done:  E(RHF) =  -279.507602107     A.U. after   14 cycles
 E2 =    -0.9475644383D+00 EUMP2 =    -0.28045516654522D+03
 E2 =    -0.9475644383D+00 EUMP2 =    -0.28045516654522D+03

 The electronic state is 1-A'.
 Alpha  occ. eigenvalues --  -20.71813 -20.68762 -20.66764 -15.82484  -1.64847
 Alpha  occ. eigenvalues --   -1.50681  -1.29305  -0.95926  -0.83627  -0.76051
 Alpha  occ. eigenvalues --   -0.74114  -0.63744  -0.62004  -0.61884  -0.50337
 Alpha  occ. eigenvalues --   -0.49703
 Alpha virt. eigenvalues --    0.03502   0.06252   0.09515   0.10044   0.11955
 Alpha virt. eigenvalues --    0.12267   0.14932   0.15206   0.17775   0.18028
 Alpha virt. eigenvalues --    0.18980   0.21101   0.21674   0.24324   0.24649

 Mulliken charges:
               1
     1  H    0.277304
     2  O   -0.274710
     3  O    0.036257
     4  N    0.153776
     5  O   -0.192627
 Sum of Mulliken charges =  -0.00000

 Dipole moment (field-independent basis, Debye):
    X=              0.0346    Y=             -1.1267    Z=              0.0000  Tot=              1.1272
 Quadrupole moment (field-independent basis, Debye-Ang):
   XX=            -23.3653   YY=            -22.9321   ZZ=            -21.9189
   XY=             -1.9575   XZ=              0.0000   YZ=              0.0000

  Exact polarizability:  30.865   4.095  29.701   0.000   0.000  17.599
 Approx polarizability:  24.516   0.533  27.471  -0.000  -0.000  15.482

                      1                      2                      3
                     A"                     A'                     A"
 Frequencies --    349.4858               396.2570               516.2452
 Red. masses --      1.5934                 7.0900                 2.7931
 Frc consts  --      0.1147                 0.6559                 0.4386
 IR Inten    --     61.1978                 7.4714                27.0500

                      4                      5                      6
                     A'                     A'                     A'
 Frequencies --    708.4940               836.7345               972.6032
 Red. masses --     13.4956                12.3084                 9.6930
 Frc consts  --      3.9913                 5.0773                 5.4023
 IR Inten    --    220.4977                27.8286                12.2176

                      7                      8                      9
                     A'                     A'                     A'
 Frequencies --   1437.5478              1609.6830              3488.4463
 Red. masses --      1.2519                 8.1034                 1.0637
 Frc consts  --      1.5242                12.3708                 7.6269
 IR Inten    --     81.2236               156.9361                42.5293

 - Thermochemistry -
 -------------------
 Temperature   298.150 Kelvin.  Pressure   1.00000 Atm.
 Atom     1 has atomic number  1 and mass   1.00783

 Molecular mass:    62.99564 amu.
 Principal axes and moments of inertia in atomic units:
                           1         2         3
     Eigenvalues --    84.05655 222.32010 306.37665
           X            0.79825  -0.60233   0.00000
           Y            0.60233   0.79825   0.00000
           Z            0.00000   0.00000   1.00000
 This molecule is an asymmetric top.
 Rotational symmetry number  1.
 Rotational temperatures (Kelvin)      1.03042     0.38959     0.28270
 Rotational constants (GHZ):          21.47056     8.11776     5.89060
 Zero-point vibrational energy      61700.4 (Joules/Mol)
                                   14.74674 (Kcal/Mol)
 Warning -- explicit consideration of   3 degrees of freedom as
           vibrations may cause significant error
 Vibrational temperatures:    502.83   570.13   742.76  1019.36  1203.87
          (Kelvin)           1399.36  2068.31  2315.97  5019.10

 Zero-point correction=                           0.023500 (Hartree/Particle)
 Thermal correction to Energy=                    0.027448
 Thermal correction to Enthalpy=                  0.028393
 Thermal correction to Gibbs Free Energy=        -0.002477
 Sum of electronic and zero-point Energies=           -280.431666
 Sum of electronic and thermal Energies=              -280.427718
 Sum of electronic and thermal Enthalpies=            -280.426774
 Sum of electronic and thermal Free Energies=         -280.457644

                     E (Thermal)             CV                S
                      KCal/Mol        Cal/Mol-Kelvin    Cal/Mol-Kelvin
 Total                   17.224             12.187             64.971
 Electronic               0.000              0.000              0.000
 Translational            0.889              2.981             38.341
 Rotational               0.889              2.981             23.264
 Vibrational             15.447              6.226              3.366
 Vibration     1          0.727              1.576              1.169
 Vibration     2          0.763              1.478              0.977
 Vibration     3          0.871              1.214              0.619

                       ! Non-Optimized Parameters !

 1\1\GINC-N2199\Freq\RMP2-FC\Aug-CC-pVTZ\H1N1O3\CGAVINH\06-Mar-2022\1\\
 #p freq mp2/aug-cc-pvtz density=current\\title\\0,1\H\O,1,r1\O,2,r2,1,
 a1\N,3,r3,2,a2,1,d1,0\O,4,r4,3,a3,2,d2,0\\r1=0.98537664\r2=1.42673666\
 r3=1.38110764\r4=1.18750502\a1=100.6355057\a2=113.13777052\a3=114.3339
 2022\d1=0.\d2=0.\\Version=ES64L-G16RevB.01\State=1-A'\HF=-279.5076021\
 MP2=-280.4551665\RMSD=3.729e-09\RMSF=3.674e-03\ZeroPoint=0.0235004\The
 rmal=0.0274484\Dipole=-0.1059789,0.,-0.4306355\DipoleDeriv=0.316711,0.
 ,0.0376874,0.,0.2980944,0.,-0.0248106,0.,0.1991837,-0.5277427,0.,0.279

 Normal termination of Gaussian 16 at Sun Mar  6 19:21:11 2022.
