 Gaussian 16, Revision B.01,
 Gaussian 16:  ES64L-G16RevB.01 20-Dec-2017

 ---------------------------------------
 #p freq mp2/aug-cc-pvtz density=current
 ---------------------------------------

 -----
 title
 -----
 Symbolic Z-matrix:
 Charge =  0 Multiplicity = 1

                         Standard orientation:
 ---------------------------------------------------------------------
 Center     Atomic      Atomic             Coordinates (Angstroms)
 Number     Number       Type             X           Y           Z
 ---------------------------------------------------------------------
      1          1           0        1.545489    1.693101   -0.000000
      2          8           0        1.453876    0.728466   -0.000000
      3          8           0        0.000000    0.673382   -0.000000
      4          7           0       -0.256518   -0.762672    0.000000
      5          8           0       -1.422609   -0.946149    0.000000
 ---------------------------------------------------------------------

 SCF Done:  E(RHF) =  -279.499890596     A.U. after   14 cycles
 E2 =    -0.9467179576D+00 EUMP2 =    -0.28044660855319D+03
 E2 =    -0.9467179576D+00 EUMP2 =    -0.28044660855319D+03

 The electronic state is 1-A'.
 Alpha  occ. eigenvalues --  -20.69313 -20.68390 -20.66121 -15.81424  -1.61636
 Alpha  occ. eigenvalues --   -1.49549  -1.25538  -0.94941  -0.77173  -0.75665
 Alpha  occ. eigenvalues --   -0.70997  -0.67815  -0.61841  -0.59004  -0.48601
 Alpha  occ. eigenvalues --   -0.47438
 Alpha virt. eigenvalues --    0.02937   0.06869   0.08610   0.10172   0.13382
 Alpha virt. eigenvalues --    0.13414   0.14388   0.15429   0.17809   0.19428
 Alpha virt. eigenvalues --    0.19946   0.20635   0.22048   0.23463   0.23732

 Mulliken charges:
               1
     1  H    0.250591
     2  O   -0.200815
     3  O   -0.145045
     4  N    0.290636
     5  O   -0.195367
 Sum of Mulliken charges =  -0.00000

 Dipole moment (field-independent basis, Debye):
    X=              0.5441    Y=              1.4032    Z=             -0.0000  Tot=              1.5050
 Quadrupole moment (field-independent basis, Debye-Ang):
   XX=            -22.5188   YY=            -18.6157   ZZ=            -22.0265
   XY=              3.2239   XZ=              0.0000   YZ=             -0.0000

  Exact polarizability:  34.103   9.577  30.384  -0.000   0.000  17.946
 Approx polarizability:  29.224   5.184  23.605  -0.000  -0.000  15.564

 ******    1 imaginary frequencies (negative Signs) ******

                      1                      2                      3
                     A"                     A"                     A'
 Frequencies --   -270.8901               258.1291               348.1423
 Red. masses --      1.1312                11.2347                 8.5014
 Frc consts  --      0.0489                 0.4410                 0.6071
 IR Inten    --    125.1392                 0.3870                 7.6557

                      4                      5                      6
                     A'                     A'                     A'
 Frequencies --    446.6805               785.4558               966.0983
 Red. masses --     12.4587                13.1276                15.3949
 Frc consts  --      1.4646                 4.7718                 8.4659
 IR Inten    --    197.3106               170.6805                23.8001

                      7                      8                      9
                     A'                     A'                     A'
 Frequencies --   1370.0365              1616.5137              3778.7909
 Red. masses --      1.1410                12.1464                 1.0676
 Frc consts  --      1.2618                18.7006                 8.9814
 IR Inten    --    159.3811               115.4252                83.2757

 - Thermochemistry -
 -------------------
 Temperature   298.150 Kelvin.  Pressure   1.00000 Atm.
 Atom     1 has atomic number  1 and mass   1.00783

 Molecular mass:    62.99564 amu.
 Principal axes and moments of inertia in atomic units:
                           1         2         3
     Eigenvalues --    32.87973 361.79373 394.67347
           X            0.80889  -0.58797   0.00000
           Y            0.58797   0.80889   0.00000
           Z            0.00000  -0.00000   1.00000
 This molecule is an asymmetric top.
 Rotational symmetry number  1.
 Rotational temperatures (Kelvin)      2.63426     0.23940     0.21946
 Rotational constants (GHZ):          54.88917     4.98832     4.57275
    1 imaginary frequencies ignored.
 Zero-point vibrational energy      57240.4 (Joules/Mol)
                                   13.68078 (Kcal/Mol)
 Warning -- explicit consideration of   3 degrees of freedom as
           vibrations may cause significant error
 Vibrational temperatures:    371.39   500.90   642.67  1130.10  1390.00
          (Kelvin)           1971.18  2325.80  5436.84

 Zero-point correction=                           0.021802 (Hartree/Particle)
 Thermal correction to Energy=                    0.025876
 Thermal correction to Enthalpy=                  0.026820
 Thermal correction to Gibbs Free Energy=        -0.004262
 Sum of electronic and zero-point Energies=           -280.424807
 Sum of electronic and thermal Energies=              -280.420733
 Sum of electronic and thermal Enthalpies=            -280.419789
 Sum of electronic and thermal Free Energies=         -280.450870

                     E (Thermal)             CV                S
                      KCal/Mol        Cal/Mol-Kelvin    Cal/Mol-Kelvin
 Total                   16.237             11.915             65.416
 Electronic               0.000              0.000              0.000
 Translational            0.889              2.981             38.341
 Rotational               0.889              2.981             23.067
 Vibrational             14.460              5.954              4.009
 Vibration     1          0.667              1.749              1.674
 Vibration     2          0.726              1.579              1.175
 Vibration     3          0.806              1.368              0.806

                       ! Non-Optimized Parameters !

 1\1\GINC-N2125\Freq\RMP2-FC\Aug-CC-pVTZ\H1N1O3\CGAVINH\21-Feb-2022\1\\
 #p freq mp2/aug-cc-pvtz density=current\\title\\0,1\H\O,1,r1\O,2,r2,1,
 a1\N,3,r3,2,a2,1,d1,0\O,4,r4,3,a3,2,d2,0\\r1=0.96897556\r2=1.45491931\
 r3=1.45878406\r4=1.18043809\a1=97.59494903\a2=102.29752444\a3=109.0695
 5123\d1=180.\d2=180.\\Version=ES64L-G16RevB.01\State=1-A'\HF=-279.4998
 906\MP2=-280.4466086\RMSD=4.057e-09\RMSF=4.877e-03\ZeroPoint=0.0218017
 \Thermal=0.0258755\Dipole=-0.1608985,0.,-0.5698325\DipoleDeriv=0.26639
 93,0.,0.0484458,0.,0.3558713,0.,0.0827752,0.,0.2767127,-0.3299343,0.,-

 Normal termination of Gaussian 16 at Mon Feb 21 20:28:36 2022.
