 Gaussian 16, Revision B.01,
 Gaussian 16:  ES64L-G16RevB.01 20-Dec-2017

 ---------------------------------------
 #p freq mp2/aug-cc-pvtz density=current
 ---------------------------------------

 -----
 title
 -----
 Symbolic Z-matrix:
 Charge =  0 Multiplicity = 1

                         Standard orientation:
 ---------------------------------------------------------------------
 Center     Atomic      Atomic             Coordinates (Angstroms)
 Number     Number       Type             X           Y           Z
 ---------------------------------------------------------------------
      1          1           0        1.110961   -0.599665    0.000000
      2          8           0        1.316473    0.364042    0.000000
      3          8           0        0.000000    0.914021    0.000000
      4          7           0       -0.990321   -0.048643    0.000000
      5          8           0       -0.588812   -1.160544    0.000000
 ---------------------------------------------------------------------

 SCF Done:  E(RHF) =  -279.508365484     A.U. after   14 cycles
 E2 =    -0.9466560759D+00 EUMP2 =    -0.28045502155986D+03
 E2 =    -0.9466560759D+00 EUMP2 =    -0.28045502155986D+03

 The electronic state is 1-A'.
 Alpha  occ. eigenvalues --  -20.71689 -20.68788 -20.66716 -15.82396  -1.65167
 Alpha  occ. eigenvalues --   -1.50792  -1.29251  -0.95847  -0.83743  -0.76170
 Alpha  occ. eigenvalues --   -0.74206  -0.63749  -0.62123  -0.61887  -0.50237
 Alpha  occ. eigenvalues --   -0.49667
 Alpha virt. eigenvalues --    0.03499   0.06418   0.09515   0.10050   0.11943
 Alpha virt. eigenvalues --    0.12272   0.14932   0.15207   0.17792   0.18024
 Alpha virt. eigenvalues --    0.18981   0.21101   0.21677   0.24376   0.24659

 Mulliken charges:
               1
     1  H    0.276839
     2  O   -0.275087
     3  O    0.035031
     4  N    0.153514
     5  O   -0.190297
 Sum of Mulliken charges =   0.00000

 Dipole moment (field-independent basis, Debye):
    X=              0.0219    Y=             -1.1511    Z=              0.0000  Tot=              1.1513
 Quadrupole moment (field-independent basis, Debye-Ang):
   XX=            -23.3557   YY=            -22.9244   ZZ=            -21.9083
   XY=             -1.9450   XZ=              0.0000   YZ=              0.0000

  Exact polarizability:  30.825   4.060  29.590   0.000   0.000  17.585
 Approx polarizability:  24.484   0.543  27.335  -0.000  -0.000  15.457

                      1                      2                      3
                     A"                     A'                     A"
 Frequencies --    346.1145               395.4041               510.5613
 Red. masses --      1.6259                 7.1124                 2.7004
 Frc consts  --      0.1148                 0.6552                 0.4147
 IR Inten    --     59.8380                 7.2516                28.3601

                      4                      5                      6
                     A'                     A'                     A'
 Frequencies --    706.3573               836.5346               973.6934
 Red. masses --     13.6133                12.2523                 9.6455
 Frc consts  --      4.0019                 5.0517                 5.3879
 IR Inten    --    222.8252                25.7227                11.8572

                      7                      8                      9
                     A'                     A'                     A'
 Frequencies --   1439.5367              1639.9589              3489.0979
 Red. masses --      1.2298                 9.1596                 1.0637
 Frc consts  --      1.5015                14.5141                 7.6297
 IR Inten    --     82.0159               161.9621                42.3515

 - Thermochemistry -
 -------------------
 Temperature   298.150 Kelvin.  Pressure   1.00000 Atm.
 Atom     1 has atomic number  1 and mass   1.00783

 Molecular mass:    62.99564 amu.
 Principal axes and moments of inertia in atomic units:
                           1         2         3
     Eigenvalues --    83.71146 222.11187 305.82333
           X            0.79965  -0.60046   0.00000
           Y            0.60046   0.79965   0.00000
           Z            0.00000   0.00000   1.00000
 This molecule is an asymmetric top.
 Rotational symmetry number  1.
 Rotational temperatures (Kelvin)      1.03467     0.38996     0.28322
 Rotational constants (GHZ):          21.55907     8.12537     5.90125
 Zero-point vibrational energy      61830.5 (Joules/Mol)
                                   14.77785 (Kcal/Mol)
 Warning -- explicit consideration of   3 degrees of freedom as
           vibrations may cause significant error
 Vibrational temperatures:    497.98   568.90   734.58  1016.29  1203.59
          (Kelvin)           1400.93  2071.17  2359.54  5020.03

 Zero-point correction=                           0.023550 (Hartree/Particle)
 Thermal correction to Energy=                    0.027507
 Thermal correction to Enthalpy=                  0.028451
 Thermal correction to Gibbs Free Energy=        -0.002431
 Sum of electronic and zero-point Energies=           -280.431472
 Sum of electronic and thermal Energies=              -280.427515
 Sum of electronic and thermal Enthalpies=            -280.426571
 Sum of electronic and thermal Free Energies=         -280.457453

                     E (Thermal)             CV                S
                      KCal/Mol        Cal/Mol-Kelvin    Cal/Mol-Kelvin
 Total                   17.261             12.206             64.997
 Electronic               0.000              0.000              0.000
 Translational            0.889              2.981             38.341
 Rotational               0.889              2.981             23.257
 Vibrational             15.483              6.244              3.400
 Vibration     1          0.724              1.583              1.184
 Vibration     2          0.762              1.480              0.980
 Vibration     3          0.866              1.227              0.632

                       ! Non-Optimized Parameters !

 1\1\GINC-N2110\Freq\RMP2-FC\Aug-CC-pVTZ\H1N1O3\CGAVINH\06-Mar-2022\1\\
 #p freq mp2/aug-cc-pvtz density=current\\title\\0,1\H\O,1,r1\O,2,r2,1,
 a1\N,3,r3,2,a2,1,d1,0\O,4,r4,3,a3,2,d2,0\\r1=0.98537664\r2=1.42673666\
 r3=1.38110764\r4=1.18217317\a1=100.6355057\a2=113.13777052\a3=114.3339
 2022\d1=0.\d2=0.\\Version=ES64L-G16RevB.01\State=1-A'\HF=-279.5083655\
 MP2=-280.4550216\RMSD=3.288e-09\RMSF=6.395e-03\ZeroPoint=0.02355\Therm
 al=0.0275069\Dipole=-0.1028907,0.,-0.4411086\DipoleDeriv=0.3165509,0.,
 0.0375728,0.,0.298109,0.,-0.0250774,0.,0.1985977,-0.5274019,0.,0.27732

 Normal termination of Gaussian 16 at Sun Mar  6 19:22:09 2022.
