 Gaussian 16, Revision B.01,
 Gaussian 16:  ES64L-G16RevB.01 20-Dec-2017

 ---------------------------------------
 #p freq mp2/aug-cc-pvtz density=current
 ---------------------------------------

 -----
 title
 -----
 Symbolic Z-matrix:
 Charge =  0 Multiplicity = 1

                         Standard orientation:
 ---------------------------------------------------------------------
 Center     Atomic      Atomic             Coordinates (Angstroms)
 Number     Number       Type             X           Y           Z
 ---------------------------------------------------------------------
      1          1           0        1.086527   -0.607559    0.000000
      2          8           0        1.307477    0.352727    0.000000
      3          8           0       -0.000000    0.923761    0.000000
      4          7           0       -0.987767   -0.041523    0.000000
      5          8           0       -0.578997   -1.164210    0.000000
 ---------------------------------------------------------------------

 SCF Done:  E(RHF) =  -279.506093406     A.U. after   14 cycles
 E2 =    -0.9490479634D+00 EUMP2 =    -0.28045514136906D+03
 E2 =    -0.9490479634D+00 EUMP2 =    -0.28045514136906D+03

 The electronic state is 1-A'.
 Alpha  occ. eigenvalues --  -20.72109 -20.68790 -20.66677 -15.82602  -1.64585
 Alpha  occ. eigenvalues --   -1.50500  -1.29372  -0.96053  -0.83690  -0.75948
 Alpha  occ. eigenvalues --   -0.74082  -0.63604  -0.61946  -0.61800  -0.50542
 Alpha  occ. eigenvalues --   -0.49783
 Alpha virt. eigenvalues --    0.03528   0.05976   0.09504   0.10002   0.11970
 Alpha virt. eigenvalues --    0.12273   0.14974   0.15267   0.17742   0.18004
 Alpha virt. eigenvalues --    0.18965   0.21098   0.21671   0.24381   0.24623

 Mulliken charges:
               1
     1  H    0.274393
     2  O   -0.275608
     3  O    0.037663
     4  N    0.156122
     5  O   -0.192570
 Sum of Mulliken charges =  -0.00000

 Dipole moment (field-independent basis, Debye):
    X=              0.0176    Y=             -1.0840    Z=              0.0000  Tot=              1.0842
 Quadrupole moment (field-independent basis, Debye-Ang):
   XX=            -23.4655   YY=            -22.8683   ZZ=            -21.9294
   XY=             -1.9502   XZ=              0.0000   YZ=              0.0000

  Exact polarizability:  30.717   4.042  29.782   0.000   0.000  17.598
 Approx polarizability:  24.433   0.427  27.672  -0.000  -0.000  15.503

                      1                      2                      3
                     A"                     A'                     A"
 Frequencies --    352.3244               420.4625               528.4551
 Red. masses --      1.5619                 7.1257                 2.8818
 Frc consts  --      0.1142                 0.7422                 0.4742
 IR Inten    --     62.2525                 7.8386                25.1247

                      4                      5                      6
                     A'                     A'                     A'
 Frequencies --    709.7592               838.5327               970.6071
 Red. masses --     13.4447                12.5300                 9.9495
 Frc consts  --      3.9905                 5.1909                 5.5225
 IR Inten    --    213.9852                32.6245                12.5932

                      7                      8                      9
                     A'                     A'                     A'
 Frequencies --   1437.1831              1574.7345              3479.2817
 Red. masses --      1.3278                 5.7533                 1.0636
 Frc consts  --      1.6159                 8.4059                 7.5857
 IR Inten    --     81.6258               148.1568                46.6393

 - Thermochemistry -
 -------------------
 Temperature   298.150 Kelvin.  Pressure   1.00000 Atm.
 Atom     1 has atomic number  1 and mass   1.00783

 Molecular mass:    62.99564 amu.
 Principal axes and moments of inertia in atomic units:
                           1         2         3
     Eigenvalues --    85.31224 219.11304 304.42527
           X            0.79447  -0.60730   0.00000
           Y            0.60730   0.79447   0.00000
           Z            0.00000   0.00000   1.00000
 This molecule is an asymmetric top.
 Rotational symmetry number  1.
 Rotational temperatures (Kelvin)      1.01526     0.39529     0.28452
 Rotational constants (GHZ):          21.15454     8.23658     5.92836
 Zero-point vibrational energy      61675.5 (Joules/Mol)
                                   14.74080 (Kcal/Mol)
 Warning -- explicit consideration of   3 degrees of freedom as
           vibrations may cause significant error
 Vibrational temperatures:    506.92   604.95   760.33  1021.19  1206.46
          (Kelvin)           1396.49  2067.79  2265.69  5005.91

 Zero-point correction=                           0.023491 (Hartree/Particle)
 Thermal correction to Energy=                    0.027404
 Thermal correction to Enthalpy=                  0.028348
 Thermal correction to Gibbs Free Energy=        -0.002458
 Sum of electronic and zero-point Energies=           -280.431650
 Sum of electronic and thermal Energies=              -280.427737
 Sum of electronic and thermal Enthalpies=            -280.426793
 Sum of electronic and thermal Free Energies=         -280.457599

                     E (Thermal)             CV                S
                      KCal/Mol        Cal/Mol-Kelvin    Cal/Mol-Kelvin
 Total                   17.196             12.106             64.837
 Electronic               0.000              0.000              0.000
 Translational            0.889              2.981             38.341
 Rotational               0.889              2.981             23.258
 Vibrational             15.419              6.145              3.239
 Vibration     1          0.729              1.570              1.156
 Vibration     2          0.783              1.426              0.890
 Vibration     3          0.883              1.187              0.591

                       ! Non-Optimized Parameters !

 1\1\GINC-N2228\Freq\RMP2-FC\Aug-CC-pVTZ\H1N1O3\CGAVINH\06-Mar-2022\1\\
 #p freq mp2/aug-cc-pvtz density=current\\title\\0,1\H\O,1,r1\O,2,r2,1,
 a1\N,3,r3,2,a2,1,d1,0\O,4,r4,3,a3,2,d2,0\\r1=0.98537664\r2=1.42673666\
 r3=1.38110764\r4=1.19478846\a1=100.6355057\a2=112.06644977\a3=114.3339
 2022\d1=0.\d2=0.\\Version=ES64L-G16RevB.01\State=1-A'\HF=-279.5060934\
 MP2=-280.4551414\RMSD=4.650e-09\RMSF=1.969e-03\ZeroPoint=0.023491\Ther
 mal=0.0274041\Dipole=-0.1023913,0.,-0.4140753\DipoleDeriv=0.3197606,0.
 ,0.0336387,0.,0.2962575,0.,-0.0317184,0.,0.2083028,-0.5192089,0.,0.283

 Normal termination of Gaussian 16 at Sun Mar  6 19:38:31 2022.
