 Gaussian 16, Revision B.01,
 Gaussian 16:  ES64L-G16RevB.01 20-Dec-2017

 ---------------------------------------
 #p freq mp2/aug-cc-pvtz density=current
 ---------------------------------------

 -----
 title
 -----
 Symbolic Z-matrix:
 Charge =  0 Multiplicity = 1

                         Standard orientation:
 ---------------------------------------------------------------------
 Center     Atomic      Atomic             Coordinates (Angstroms)
 Number     Number       Type             X           Y           Z
 ---------------------------------------------------------------------
      1          1           0        1.547514    1.682203    0.000000
      2          8           0        1.453983    0.717752    0.000000
      3          8           0       -0.000000    0.665560    0.000000
      4          7           0       -0.259374   -0.769981   -0.000000
      5          8           0       -1.420470   -0.919854   -0.000000
 ---------------------------------------------------------------------

 SCF Done:  E(RHF) =  -279.501609213     A.U. after   14 cycles
 E2 =    -0.9449650762D+00 EUMP2 =    -0.28044657428917D+03
 E2 =    -0.9449650762D+00 EUMP2 =    -0.28044657428917D+03

 The electronic state is 1-A'.
 Alpha  occ. eigenvalues --  -20.69027 -20.68377 -20.65901 -15.81333  -1.62528
 Alpha  occ. eigenvalues --   -1.49464  -1.25319  -0.94847  -0.77196  -0.75970
 Alpha  occ. eigenvalues --   -0.71209  -0.67898  -0.61986  -0.58812  -0.48452
 Alpha  occ. eigenvalues --   -0.47423
 Alpha virt. eigenvalues --    0.02974   0.07104   0.08623   0.10169   0.13387
 Alpha virt. eigenvalues --    0.13387   0.14416   0.15443   0.17842   0.19410
 Alpha virt. eigenvalues --    0.19987   0.20663   0.22078   0.23689   0.23758

 Mulliken charges:
               1
     1  H    0.250165
     2  O   -0.204816
     3  O   -0.145013
     4  N    0.293452
     5  O   -0.193788
 Sum of Mulliken charges =  -0.00000

 Dipole moment (field-independent basis, Debye):
    X=              0.5117    Y=              1.3408    Z=              0.0000  Tot=              1.4352
 Quadrupole moment (field-independent basis, Debye-Ang):
   XX=            -22.5161   YY=            -18.6065   ZZ=            -22.0030
   XY=              3.2196   XZ=             -0.0000   YZ=              0.0000

  Exact polarizability:  33.965   9.334  30.031   0.000   0.000  17.901
 Approx polarizability:  29.047   4.912  23.374   0.000   0.000  15.509

 ******    1 imaginary frequencies (negative Signs) ******

                      1                      2                      3
                     A"                     A"                     A'
 Frequencies --   -264.6055               229.5549               341.6296
 Red. masses --      1.1338                11.0969                 8.6597
 Frc consts  --      0.0468                 0.3445                 0.5955
 IR Inten    --    125.0485                 0.4557                 3.1206

                      4                      5                      6
                     A'                     A'                     A'
 Frequencies --    463.6716               783.3216               968.6398
 Red. masses --     12.1302                12.9516                15.4919
 Frc consts  --      1.5365                 4.6822                 8.5640
 IR Inten    --    200.2528               163.7653                20.3052

                      7                      8                      9
                     A'                     A'                     A'
 Frequencies --   1371.4369              1677.6959              3778.4388
 Red. masses --      1.1331                13.2732                 1.0675
 Frc consts  --      1.2557                22.0117                 8.9796
 IR Inten    --    150.2236               136.2148                81.3534

 - Thermochemistry -
 -------------------
 Temperature   298.150 Kelvin.  Pressure   1.00000 Atm.
 Atom     1 has atomic number  1 and mass   1.00783

 Molecular mass:    62.99564 amu.
 Principal axes and moments of inertia in atomic units:
                           1         2         3
     Eigenvalues --    33.08735 357.49616 390.58351
           X            0.81365  -0.58136   0.00000
           Y            0.58136   0.81365   0.00000
           Z           -0.00000   0.00000   1.00000
 This molecule is an asymmetric top.
 Rotational symmetry number  1.
 Rotational temperatures (Kelvin)      2.61774     0.24228     0.22176
 Rotational constants (GHZ):          54.54476     5.04828     4.62063
    1 imaginary frequencies ignored.
 Zero-point vibrational energy      57506.8 (Joules/Mol)
                                   13.74446 (Kcal/Mol)
 Warning -- explicit consideration of   3 degrees of freedom as
           vibrations may cause significant error
 Vibrational temperatures:    330.28   491.53   667.12  1127.03  1393.66
          (Kelvin)           1973.19  2413.83  5436.33

 Zero-point correction=                           0.021903 (Hartree/Particle)
 Thermal correction to Energy=                    0.026010
 Thermal correction to Enthalpy=                  0.026954
 Thermal correction to Gibbs Free Energy=        -0.004208
 Sum of electronic and zero-point Energies=           -280.424671
 Sum of electronic and thermal Energies=              -280.420564
 Sum of electronic and thermal Enthalpies=            -280.419620
 Sum of electronic and thermal Free Energies=         -280.450782

                     E (Thermal)             CV                S
                      KCal/Mol        Cal/Mol-Kelvin    Cal/Mol-Kelvin
 Total                   16.322             11.928             65.587
 Electronic               0.000              0.000              0.000
 Translational            0.889              2.981             38.341
 Rotational               0.889              2.981             23.051
 Vibrational             14.544              5.967              4.196
 Vibration     1          0.652              1.796              1.882
 Vibration     2          0.721              1.592              1.205
 Vibration     3          0.821              1.331              0.755

                       ! Non-Optimized Parameters !

 1\1\GINC-N2127\Freq\RMP2-FC\Aug-CC-pVTZ\H1N1O3\CGAVINH\21-Feb-2022\1\\
 #p freq mp2/aug-cc-pvtz density=current\\title\\0,1\H\O,1,r1\O,2,r2,1,
 a1\N,3,r3,2,a2,1,d1,0\O,4,r4,3,a3,2,d2,0\\r1=0.96897556\r2=1.45491931\
 r3=1.45878406\r4=1.17072885\a1=97.59494903\a2=102.29752444\a3=107.5967
 261\d1=180.\d2=180.\\Version=ES64L-G16RevB.01\State=1-A'\HF=-279.50160
 92\MP2=-280.4465743\RMSD=3.730e-09\RMSF=2.786e-03\ZeroPoint=0.0219032\
 Thermal=0.0260103\Dipole=-0.1494757,0.,-0.5444943\DipoleDeriv=0.265492
 3,0.,0.0478549,0.,0.3552601,0.,0.0808796,0.,0.27329,-0.3316678,0.,-0.2

 Normal termination of Gaussian 16 at Mon Feb 21 21:00:21 2022.
