 Gaussian 16, Revision B.01,
 Gaussian 16:  ES64L-G16RevB.01 20-Dec-2017

 ---------------------------------------
 #p freq mp2/aug-cc-pvtz density=current
 ---------------------------------------

 -----
 title
 -----
 Symbolic Z-matrix:
 Charge =  0 Multiplicity = 1

                         Standard orientation:
 ---------------------------------------------------------------------
 Center     Atomic      Atomic             Coordinates (Angstroms)
 Number     Number       Type             X           Y           Z
 ---------------------------------------------------------------------
      1          1           0        1.098417   -0.612068    0.000000
      2          8           0        1.311884    0.349909    0.000000
      3          8           0       -0.000000    0.910746    0.000000
      4          7           0       -0.984364   -0.030435    0.000000
      5          8           0       -0.587868   -1.157516    0.000000
 ---------------------------------------------------------------------

 SCF Done:  E(RHF) =  -279.507903377     A.U. after   14 cycles
 E2 =    -0.9472007470D+00 EUMP2 =    -0.28045510412387D+03
 E2 =    -0.9472007470D+00 EUMP2 =    -0.28045510412387D+03

 The electronic state is 1-A'.
 Alpha  occ. eigenvalues --  -20.72302 -20.68274 -20.66935 -15.82366  -1.64936
 Alpha  occ. eigenvalues --   -1.50511  -1.30072  -0.95939  -0.83675  -0.76142
 Alpha  occ. eigenvalues --   -0.74447  -0.63813  -0.61805  -0.61658  -0.50481
 Alpha  occ. eigenvalues --   -0.49938
 Alpha virt. eigenvalues --    0.03498   0.06314   0.09515   0.10047   0.11971
 Alpha virt. eigenvalues --    0.12300   0.14875   0.15165   0.17742   0.18064
 Alpha virt. eigenvalues --    0.18964   0.21119   0.21663   0.24268   0.24644

 Mulliken charges:
               1
     1  H    0.278054
     2  O   -0.276961
     3  O    0.052999
     4  N    0.147477
     5  O   -0.201570
 Sum of Mulliken charges =  -0.00000

 Dipole moment (field-independent basis, Debye):
    X=              0.0970    Y=             -1.0065    Z=              0.0000  Tot=              1.0111
 Quadrupole moment (field-independent basis, Debye-Ang):
   XX=            -23.4446   YY=            -22.8994   ZZ=            -21.9018
   XY=             -2.0144   XZ=              0.0000   YZ=              0.0000

  Exact polarizability:  30.821   3.999  29.573   0.000   0.000  17.556
 Approx polarizability:  24.412   0.433  27.367  -0.000  -0.000  15.482

                      1                      2                      3
                     A"                     A'                     A"
 Frequencies --    361.7697               412.5245               527.6431
 Red. masses --      1.6125                 6.9321                 2.7334
 Frc consts  --      0.1243                 0.6950                 0.4484
 IR Inten    --     61.3542                 7.3928                27.2762

                      4                      5                      6
                     A'                     A'                     A'
 Frequencies --    782.0323               838.3475               976.2912
 Red. masses --     13.1573                12.7578                 9.5183
 Frc consts  --      4.7410                 5.2829                 5.3453
 IR Inten    --    191.4528                39.2876                15.0359

                      7                      8                      9
                     A'                     A'                     A'
 Frequencies --   1432.1065              1580.5389              3485.2197
 Red. masses --      1.2952                 6.8638                 1.0635
 Frc consts  --      1.5651                10.1024                 7.6110
 IR Inten    --     81.4641               150.6157                46.2076

 - Thermochemistry -
 -------------------
 Temperature   298.150 Kelvin.  Pressure   1.00000 Atm.
 Atom     1 has atomic number  1 and mass   1.00783

 Molecular mass:    62.99564 amu.
 Principal axes and moments of inertia in atomic units:
                           1         2         3
     Eigenvalues --    84.49672 218.55035 303.04707
           X            0.80224  -0.59700   0.00000
           Y            0.59700   0.80224   0.00000
           Z            0.00000   0.00000   1.00000
 This molecule is an asymmetric top.
 Rotational symmetry number  1.
 Rotational temperatures (Kelvin)      1.02506     0.39631     0.28581
 Rotational constants (GHZ):          21.35871     8.25778     5.95532
 Zero-point vibrational energy      62184.7 (Joules/Mol)
                                   14.86251 (Kcal/Mol)
 Warning -- explicit consideration of   3 degrees of freedom as
           vibrations may cause significant error
 Vibrational temperatures:    520.51   593.53   759.16  1125.17  1206.20
          (Kelvin)           1404.67  2060.48  2274.04  5014.45

 Zero-point correction=                           0.023685 (Hartree/Particle)
 Thermal correction to Energy=                    0.027570
 Thermal correction to Enthalpy=                  0.028514
 Thermal correction to Gibbs Free Energy=        -0.002243
 Sum of electronic and zero-point Energies=           -280.431419
 Sum of electronic and thermal Energies=              -280.427534
 Sum of electronic and thermal Enthalpies=            -280.426590
 Sum of electronic and thermal Free Energies=         -280.457347

                     E (Thermal)             CV                S
                      KCal/Mol        Cal/Mol-Kelvin    Cal/Mol-Kelvin
 Total                   17.300             11.970             64.734
 Electronic               0.000              0.000              0.000
 Translational            0.889              2.981             38.341
 Rotational               0.889              2.981             23.241
 Vibrational             15.523              6.008              3.152
 Vibration     1          0.736              1.551              1.114
 Vibration     2          0.776              1.443              0.918
 Vibration     3          0.883              1.189              0.592

                       ! Non-Optimized Parameters !

 1\1\GINC-N2219\Freq\RMP2-FC\Aug-CC-pVTZ\H1N1O3\CGAVINH\06-Mar-2022\1\\
 #p freq mp2/aug-cc-pvtz density=current\\title\\0,1\H\O,1,r1\O,2,r2,1,
 a1\N,3,r3,2,a2,1,d1,0\O,4,r4,3,a3,2,d2,0\\r1=0.98537664\r2=1.42673666\
 r3=1.36190798\r4=1.19478846\a1=100.6355057\a2=113.13777052\a3=114.3339
 2022\d1=0.\d2=0.\\Version=ES64L-G16RevB.01\State=1-A'\HF=-279.5079034\
 MP2=-280.4551041\RMSD=3.909e-09\RMSF=2.709e-03\ZeroPoint=0.0236849\The
 rmal=0.0275699\Dipole=-0.1230195,0.,-0.3783103\DipoleDeriv=0.3216493,0
 .,0.0363041,0.,0.2983008,0.,-0.0269764,0.,0.2080063,-0.5350993,0.,0.28

 Normal termination of Gaussian 16 at Sun Mar  6 19:12:30 2022.
