 Gaussian 16, Revision B.01,
 Gaussian 16:  ES64L-G16RevB.01 20-Dec-2017

 ---------------------------------------
 #p freq mp2/aug-cc-pvtz density=current
 ---------------------------------------

 -----
 title
 -----
 Symbolic Z-matrix:
 Charge =  0 Multiplicity = 1

                         Standard orientation:
 ---------------------------------------------------------------------
 Center     Atomic      Atomic             Coordinates (Angstroms)
 Number     Number       Type             X           Y           Z
 ---------------------------------------------------------------------
      1          1           0        1.551343    1.692667    0.000000
      2          8           0        1.454170    0.728577   -0.000000
      3          8           0       -0.000000    0.681876    0.000000
      4          7           0       -0.264794   -0.752674   -0.000000
      5          8           0       -1.416393   -0.963446    0.000000
 ---------------------------------------------------------------------

 SCF Done:  E(RHF) =  -279.501321424     A.U. after   14 cycles
 E2 =    -0.9451876996D+00 EUMP2 =    -0.28044650912335D+03
 E2 =    -0.9451876996D+00 EUMP2 =    -0.28044650912335D+03

 The electronic state is 1-A'.
 Alpha  occ. eigenvalues --  -20.69162 -20.68490 -20.66107 -15.81221  -1.62261
 Alpha  occ. eigenvalues --   -1.49701  -1.25580  -0.94762  -0.77370  -0.75861
 Alpha  occ. eigenvalues --   -0.71147  -0.67982  -0.62113  -0.59091  -0.48604
 Alpha  occ. eigenvalues --   -0.47029
 Alpha virt. eigenvalues --    0.02949   0.07241   0.08559   0.10173   0.13405
 Alpha virt. eigenvalues --    0.13406   0.14402   0.15464   0.17807   0.19424
 Alpha virt. eigenvalues --    0.19974   0.20600   0.22080   0.23370   0.23715

 Mulliken charges:
               1
     1  H    0.250299
     2  O   -0.197840
     3  O   -0.149540
     4  N    0.289711
     5  O   -0.192630
 Sum of Mulliken charges =  -0.00000

 Dipole moment (field-independent basis, Debye):
    X=              0.5024    Y=              1.3829    Z=              0.0000  Tot=              1.4714
 Quadrupole moment (field-independent basis, Debye-Ang):
   XX=            -22.4129   YY=            -18.6273   ZZ=            -22.0192
   XY=              3.2989   XZ=              0.0000   YZ=             -0.0000

  Exact polarizability:  34.046   9.634  30.521  -0.000  -0.000  17.961
 Approx polarizability:  28.955   5.331  23.707  -0.000   0.000  15.537

 ******    1 imaginary frequencies (negative Signs) ******

                      1                      2                      3
                     A"                     A"                     A'
 Frequencies --   -275.0164               226.0803               340.3125
 Red. masses --      1.1460                 9.8309                 8.5559
 Frc consts  --      0.0511                 0.2961                 0.5838
 IR Inten    --    124.2070                 1.2898                 7.8890

                      4                      5                      6
                     A'                     A'                     A'
 Frequencies --    436.7625               787.5696               965.7501
 Red. masses --     12.5436                12.9023                15.2613
 Frc consts  --      1.4098                 4.7152                 8.3863
 IR Inten    --    198.5995               177.5573                25.8833

                      7                      8                      9
                     A'                     A'                     A'
 Frequencies --   1370.8581              1676.7535              3779.0030
 Red. masses --      1.1338                13.1289                 1.0676
 Frc consts  --      1.2554                21.7479                 8.9824
 IR Inten    --    156.2694               145.5393                83.9178

 - Thermochemistry -
 -------------------
 Temperature   298.150 Kelvin.  Pressure   1.00000 Atm.
 Atom     1 has atomic number  1 and mass   1.00783

 Molecular mass:    62.99564 amu.
 Principal axes and moments of inertia in atomic units:
                           1         2         3
     Eigenvalues --    32.57167 363.21319 395.78486
           X            0.80607  -0.59182   0.00000
           Y            0.59182   0.80607   0.00000
           Z            0.00000  -0.00000   1.00000
 This molecule is an asymmetric top.
 Rotational symmetry number  1.
 Rotational temperatures (Kelvin)      2.65918     0.23847     0.21884
 Rotational constants (GHZ):          55.40831     4.96882     4.55990
    1 imaginary frequencies ignored.
 Zero-point vibrational energy      57319.6 (Joules/Mol)
                                   13.69971 (Kcal/Mol)
 Warning -- explicit consideration of   3 degrees of freedom as
           vibrations may cause significant error
 Vibrational temperatures:    325.28   489.63   628.40  1133.14  1389.50
          (Kelvin)           1972.36  2412.47  5437.14

 Zero-point correction=                           0.021832 (Hartree/Particle)
 Thermal correction to Energy=                    0.025968
 Thermal correction to Enthalpy=                  0.026912
 Thermal correction to Gibbs Free Energy=        -0.004310
 Sum of electronic and zero-point Energies=           -280.424677
 Sum of electronic and thermal Energies=              -280.420541
 Sum of electronic and thermal Enthalpies=            -280.419597
 Sum of electronic and thermal Free Energies=         -280.450820

                     E (Thermal)             CV                S
                      KCal/Mol        Cal/Mol-Kelvin    Cal/Mol-Kelvin
 Total                   16.295             11.992             65.713
 Electronic               0.000              0.000              0.000
 Translational            0.889              2.981             38.341
 Rotational               0.889              2.981             23.064
 Vibrational             14.517              6.031              4.308
 Vibration     1          0.650              1.801              1.910
 Vibration     2          0.720              1.595              1.211
 Vibration     3          0.797              1.390              0.837

                       ! Non-Optimized Parameters !

 1\1\GINC-N2129\Freq\RMP2-FC\Aug-CC-pVTZ\H1N1O3\CGAVINH\21-Feb-2022\1\\
 #p freq mp2/aug-cc-pvtz density=current\\title\\0,1\H\O,1,r1\O,2,r2,1,
 a1\N,3,r3,2,a2,1,d1,0\O,4,r4,3,a3,2,d2,0\\r1=0.96897556\r2=1.45491931\
 r3=1.45878406\r4=1.17072885\a1=97.59494903\a2=102.29752444\a3=110.8299
 1396\d1=180.\d2=180.\\Version=ES64L-G16RevB.01\State=1-A'\HF=-279.5013
 214\MP2=-280.4465091\RMSD=3.879e-09\RMSF=3.268e-03\ZeroPoint=0.0218319
 \Thermal=0.0259677\Dipole=-0.1421149,0.,-0.5611603\DipoleDeriv=0.26732
 67,0.,0.0487996,0.,0.3558712,0.,0.0835772,0.,0.2782193,-0.3246546,0.,-

 Normal termination of Gaussian 16 at Mon Feb 21 20:56:02 2022.
