 Gaussian 16, Revision B.01,
 Gaussian 16:  ES64L-G16RevB.01 20-Dec-2017

 ---------------------------------------
 #p freq mp2/aug-cc-pvtz density=current
 ---------------------------------------

 -----
 title
 -----
 Symbolic Z-matrix:
 Charge =  0 Multiplicity = 1

                         Standard orientation:
 ---------------------------------------------------------------------
 Center     Atomic      Atomic             Coordinates (Angstroms)
 Number     Number       Type             X           Y           Z
 ---------------------------------------------------------------------
      1          1           0        1.097636   -0.608962    0.000000
      2          8           0        1.311596    0.352905    0.000000
      3          8           0        0.000000    0.914414   -0.000000
      4          7           0       -0.998730   -0.039523   -0.000000
      5          8           0       -0.574912   -1.156616   -0.000000
 ---------------------------------------------------------------------

 SCF Done:  E(RHF) =  -279.506133725     A.U. after   14 cycles
 E2 =    -0.9488998298D+00 EUMP2 =    -0.28045503355457D+03
 E2 =    -0.9488998298D+00 EUMP2 =    -0.28045503355457D+03

 The electronic state is 1-A'.
 Alpha  occ. eigenvalues --  -20.71834 -20.68653 -20.66731 -15.82694  -1.64613
 Alpha  occ. eigenvalues --   -1.50312  -1.29316  -0.95990  -0.83664  -0.75923
 Alpha  occ. eigenvalues --   -0.74024  -0.63530  -0.61744  -0.61740  -0.50710
 Alpha  occ. eigenvalues --   -0.49671
 Alpha virt. eigenvalues --    0.03519   0.05942   0.09512   0.10015   0.11968
 Alpha virt. eigenvalues --    0.12252   0.14975   0.15230   0.17731   0.18030
 Alpha virt. eigenvalues --    0.19006   0.21089   0.21666   0.24240   0.24636

 Mulliken charges:
               1
     1  H    0.277008
     2  O   -0.274291
     3  O    0.038099
     4  N    0.153644
     5  O   -0.194459
 Sum of Mulliken charges =  -0.00000

 Dipole moment (field-independent basis, Debye):
    X=              0.0174    Y=             -1.0924    Z=              0.0000  Tot=              1.0925
 Quadrupole moment (field-independent basis, Debye-Ang):
   XX=            -23.3480   YY=            -22.9314   ZZ=            -21.9280
   XY=             -1.9873   XZ=             -0.0000   YZ=             -0.0000

  Exact polarizability:  30.880   4.033  29.674   0.000   0.000  17.590
 Approx polarizability:  24.636   0.371  27.475   0.000  -0.000  15.501

                      1                      2                      3
                     A"                     A'                     A"
 Frequencies --    356.0993               418.3159               531.8279
 Red. masses --      1.5425                 6.9748                 2.9559
 Frc consts  --      0.1152                 0.7191                 0.4926
 IR Inten    --     62.9576                 7.9901                25.1059

                      4                      5                      6
                     A'                     A'                     A'
 Frequencies --    721.0267               833.8621               975.1846
 Red. masses --     13.5639                12.3571                 9.4883
 Frc consts  --      4.1547                 5.0624                 5.3164
 IR Inten    --    219.3235                25.9845                11.7231

                      7                      8                      9
                     A'                     A'                     A'
 Frequencies --   1426.0097              1572.1179              3484.3735
 Red. masses --      1.3097                 6.4744                 1.0633
 Frc consts  --      1.5691                 9.4280                 7.6063
 IR Inten    --     81.4213               147.4615                45.1903

 - Thermochemistry -
 -------------------
 Temperature   298.150 Kelvin.  Pressure   1.00000 Atm.
 Atom     1 has atomic number  1 and mass   1.00783

 Molecular mass:    62.99564 amu.
 Principal axes and moments of inertia in atomic units:
                           1         2         3
     Eigenvalues --    85.10949 218.85467 303.96416
           X            0.80271  -0.59637   0.00000
           Y            0.59637   0.80271   0.00000
           Z           -0.00000   0.00000   1.00000
 This molecule is an asymmetric top.
 Rotational symmetry number  1.
 Rotational temperatures (Kelvin)      1.01768     0.39576     0.28495
 Rotational constants (GHZ):          21.20494     8.24630     5.93735
 Zero-point vibrational energy      61720.2 (Joules/Mol)
                                   14.75149 (Kcal/Mol)
 Warning -- explicit consideration of   3 degrees of freedom as
           vibrations may cause significant error
 Vibrational temperatures:    512.35   601.86   765.18  1037.40  1199.74
          (Kelvin)           1403.07  2051.71  2261.93  5013.24

 Zero-point correction=                           0.023508 (Hartree/Particle)
 Thermal correction to Energy=                    0.027413
 Thermal correction to Enthalpy=                  0.028357
 Thermal correction to Gibbs Free Energy=        -0.002433
 Sum of electronic and zero-point Energies=           -280.431526
 Sum of electronic and thermal Energies=              -280.427620
 Sum of electronic and thermal Enthalpies=            -280.426676
 Sum of electronic and thermal Free Energies=         -280.457467

                     E (Thermal)             CV                S
                      KCal/Mol        Cal/Mol-Kelvin    Cal/Mol-Kelvin
 Total                   17.202             12.081             64.805
 Electronic               0.000              0.000              0.000
 Translational            0.889              2.981             38.341
 Rotational               0.889              2.981             23.253
 Vibrational             15.425              6.119              3.212
 Vibration     1          0.732              1.563              1.139
 Vibration     2          0.781              1.430              0.898
 Vibration     3          0.887              1.180              0.583

                       ! Non-Optimized Parameters !

 1\1\GINC-N2110\Freq\RMP2-FC\Aug-CC-pVTZ\H1N1O3\CGAVINH\06-Mar-2022\1\\
 #p freq mp2/aug-cc-pvtz density=current\\title\\0,1\H\O,1,r1\O,2,r2,1,
 a1\N,3,r3,2,a2,1,d1,0\O,4,r4,3,a3,2,d2,0\\r1=0.98537664\r2=1.42673666\
 r3=1.38110764\r4=1.19478846\a1=100.6355057\a2=113.13777052\a3=112.9094
 3665\d1=0.\d2=0.\\Version=ES64L-G16RevB.01\State=1-A'\HF=-279.5061337\
 MP2=-280.4550336\RMSD=4.560e-09\RMSF=3.166e-03\ZeroPoint=0.023508\Ther
 mal=0.0274132\Dipole=-0.0999825,0.,-0.4180295\DipoleDeriv=0.3204428,0.
 ,0.0358703,0.,0.2975218,0.,-0.0283212,0.,0.2054675,-0.5260206,0.,0.284

 Normal termination of Gaussian 16 at Sun Mar  6 19:48:48 2022.
