 Gaussian 16, Revision B.01,
 Gaussian 16:  ES64L-G16RevB.01 20-Dec-2017

 ---------------------------------------
 #p freq mp2/aug-cc-pvtz density=current
 ---------------------------------------

 -----
 title
 -----
 Symbolic Z-matrix:
 Charge =  0 Multiplicity = 1

                         Standard orientation:
 ---------------------------------------------------------------------
 Center     Atomic      Atomic             Coordinates (Angstroms)
 Number     Number       Type             X           Y           Z
 ---------------------------------------------------------------------
      1          1           0        1.110752   -0.599468   -0.000000
      2          8           0        1.316397    0.364211    0.000000
      3          8           0        0.000000    0.914372    0.000000
      4          7           0       -0.990454   -0.048155   -0.000000
      5          8           0       -0.588593   -1.161513   -0.000000
 ---------------------------------------------------------------------

 SCF Done:  E(RHF) =  -279.508160555     A.U. after   14 cycles
 E2 =    -0.9469094752D+00 EUMP2 =    -0.28045507003010D+03
 E2 =    -0.9469094752D+00 EUMP2 =    -0.28045507003010D+03

 The electronic state is 1-A'.
 Alpha  occ. eigenvalues --  -20.71724 -20.68781 -20.66730 -15.82421  -1.65076
 Alpha  occ. eigenvalues --   -1.50762  -1.29266  -0.95869  -0.83710  -0.76136
 Alpha  occ. eigenvalues --   -0.74180  -0.63747  -0.62090  -0.61886  -0.50265
 Alpha  occ. eigenvalues --   -0.49677
 Alpha virt. eigenvalues --    0.03500   0.06372   0.09515   0.10048   0.11946
 Alpha virt. eigenvalues --    0.12271   0.14932   0.15207   0.17787   0.18025
 Alpha virt. eigenvalues --    0.18981   0.21101   0.21676   0.24361   0.24656

 Mulliken charges:
               1
     1  H    0.276970
     2  O   -0.274982
     3  O    0.035376
     4  N    0.153592
     5  O   -0.190956
 Sum of Mulliken charges =  -0.00000

 Dipole moment (field-independent basis, Debye):
    X=              0.0255    Y=             -1.1442    Z=             -0.0000  Tot=              1.1445
 Quadrupole moment (field-independent basis, Debye-Ang):
   XX=            -23.3584   YY=            -22.9266   ZZ=            -21.9112
   XY=             -1.9485   XZ=             -0.0000   YZ=             -0.0000

  Exact polarizability:  30.836   4.070  29.621   0.000   0.000  17.589
 Approx polarizability:  24.493   0.541  27.373   0.000   0.000  15.464

                      1                      2                      3
                     A"                     A'                     A"
 Frequencies --    347.0823               395.6574               512.1822
 Red. masses --      1.6162                 7.1060                 2.7268
 Frc consts  --      0.1147                 0.6554                 0.4215
 IR Inten    --     60.2341                 7.3128                27.9783

                      4                      5                      6
                     A'                     A'                     A'
 Frequencies --    706.9541               836.5984               973.3968
 Red. masses --     13.5802                12.2684                 9.6585
 Frc consts  --      3.9989                 5.0591                 5.3919
 IR Inten    --    222.1815                26.3070                11.9553

                      7                      8                      9
                     A'                     A'                     A'
 Frequencies --   1439.0212              1631.3881              3488.9167
 Red. masses --      1.2350                 8.8816                 1.0637
 Frc consts  --      1.5068                13.9270                 7.6289
 IR Inten    --     81.8075               160.5437                42.4032

 - Thermochemistry -
 -------------------
 Temperature   298.150 Kelvin.  Pressure   1.00000 Atm.
 Atom     1 has atomic number  1 and mass   1.00783

 Molecular mass:    62.99564 amu.
 Principal axes and moments of inertia in atomic units:
                           1         2         3
     Eigenvalues --    83.80788 222.16980 305.97768
           X            0.79926  -0.60098   0.00000
           Y            0.60098   0.79926   0.00000
           Z            0.00000  -0.00000   1.00000
 This molecule is an asymmetric top.
 Rotational symmetry number  1.
 Rotational temperatures (Kelvin)      1.03348     0.38985     0.28307
 Rotational constants (GHZ):          21.53427     8.12325     5.89828
 Zero-point vibrational energy      61794.3 (Joules/Mol)
                                   14.76919 (Kcal/Mol)
 Warning -- explicit consideration of   3 degrees of freedom as
           vibrations may cause significant error
 Vibrational temperatures:    499.37   569.26   736.92  1017.15  1203.68
          (Kelvin)           1400.50  2070.43  2347.20  5019.77

 Zero-point correction=                           0.023536 (Hartree/Particle)
 Thermal correction to Energy=                    0.027490
 Thermal correction to Enthalpy=                  0.028435
 Thermal correction to Gibbs Free Energy=        -0.002444
 Sum of electronic and zero-point Energies=           -280.431534
 Sum of electronic and thermal Energies=              -280.427580
 Sum of electronic and thermal Enthalpies=            -280.426635
 Sum of electronic and thermal Free Energies=         -280.457514

                     E (Thermal)             CV                S
                      KCal/Mol        Cal/Mol-Kelvin    Cal/Mol-Kelvin
 Total                   17.251             12.200             64.989
 Electronic               0.000              0.000              0.000
 Translational            0.889              2.981             38.341
 Rotational               0.889              2.981             23.259
 Vibrational             15.473              6.239              3.390
 Vibration     1          0.725              1.581              1.179
 Vibration     2          0.762              1.479              0.979
 Vibration     3          0.867              1.223              0.628

                       ! Non-Optimized Parameters !

 1\1\GINC-N2108\Freq\RMP2-FC\Aug-CC-pVTZ\H1N1O3\CGAVINH\06-Mar-2022\1\\
 #p freq mp2/aug-cc-pvtz density=current\\title\\0,1\H\O,1,r1\O,2,r2,1,
 a1\N,3,r3,2,a2,1,d1,0\O,4,r4,3,a3,2,d2,0\\r1=0.98537664\r2=1.42673666\
 r3=1.38110764\r4=1.18366282\a1=100.6355057\a2=113.13777052\a3=114.3339
 2022\d1=0.\d2=0.\\Version=ES64L-G16RevB.01\State=1-A'\HF=-279.5081606\
 MP2=-280.45507\RMSD=3.364e-09\RMSF=5.624e-03\ZeroPoint=0.0235362\Therm
 al=0.0274905\Dipole=-0.1037549,0.,-0.4381677\DipoleDeriv=0.3165968,0.,
 0.0376029,0.,0.2981054,0.,-0.0250025,0.,0.1987667,-0.5274939,0.,0.2777

 Normal termination of Gaussian 16 at Sun Mar  6 19:21:50 2022.
