 Gaussian 16, Revision B.01,
 Gaussian 16:  ES64L-G16RevB.01 20-Dec-2017

 ---------------------------------------
 #p freq mp2/aug-cc-pvtz density=current
 ---------------------------------------

 -----
 title
 -----
 Symbolic Z-matrix:
 Charge =  0 Multiplicity = 1

                         Standard orientation:
 ---------------------------------------------------------------------
 Center     Atomic      Atomic             Coordinates (Angstroms)
 Number     Number       Type             X           Y           Z
 ---------------------------------------------------------------------
      1          1           0        1.073301   -0.612946    0.000000
      2          8           0        1.302512    0.345402    0.000000
      3          8           0       -0.000000    0.927673    0.000000
      4          7           0       -0.985587   -0.039837    0.000000
      5          8           0       -0.574286   -1.161599    0.000000
 ---------------------------------------------------------------------

 SCF Done:  E(RHF) =  -279.505792946     A.U. after   14 cycles
 E2 =    -0.9492000356D+00 EUMP2 =    -0.28045499298135D+03
 E2 =    -0.9492000356D+00 EUMP2 =    -0.28045499298135D+03

 The electronic state is 1-A'.
 Alpha  occ. eigenvalues --  -20.72182 -20.68828 -20.66585 -15.82603  -1.64678
 Alpha  occ. eigenvalues --   -1.50489  -1.29370  -0.96063  -0.83824  -0.75981
 Alpha  occ. eigenvalues --   -0.74132  -0.63548  -0.61959  -0.61778  -0.50584
 Alpha  occ. eigenvalues --   -0.49799
 Alpha virt. eigenvalues --    0.03540   0.05946   0.09498   0.09982   0.11968
 Alpha virt. eigenvalues --    0.12280   0.14994   0.15306   0.17735   0.17986
 Alpha virt. eigenvalues --    0.18958   0.21096   0.21672   0.24447   0.24616

 Mulliken charges:
               1
     1  H    0.272009
     2  O   -0.276431
     3  O    0.037549
     4  N    0.157336
     5  O   -0.190463
 Sum of Mulliken charges =  -0.00000

 Dipole moment (field-independent basis, Debye):
    X=             -0.0024    Y=             -1.0782    Z=              0.0000  Tot=              1.0783
 Quadrupole moment (field-independent basis, Debye-Ang):
   XX=            -23.5155   YY=            -22.8253   ZZ=            -21.9270
   XY=             -1.9361   XZ=              0.0000   YZ=              0.0000

  Exact polarizability:  30.599   3.986  29.740   0.000   0.000  17.586
 Approx polarizability:  24.358   0.375  27.680  -0.000  -0.000  15.495

                      1                      2                      3
                     A"                     A'                     A"
 Frequencies --    351.0525               434.4487               531.3727
 Red. masses --      1.5635                 7.1710                 2.8704
 Frc consts  --      0.1135                 0.7975                 0.4775
 IR Inten    --     61.9884                 7.8920                24.8444

                      4                      5                      6
                     A'                     A'                     A'
 Frequencies --    708.8071               839.5548               970.3197
 Red. masses --     13.5091                12.6222                10.0640
 Frc consts  --      3.9988                 5.2418                 5.5828
 IR Inten    --    212.1504                33.5977                12.5383

                      7                      8                      9
                     A'                     A'                     A'
 Frequencies --   1439.3070              1577.5180              3474.0301
 Red. masses --      1.3436                 5.3855                 1.0635
 Frc consts  --      1.6399                 7.8963                 7.5621
 IR Inten    --     82.5521               147.0928                49.1562

 - Thermochemistry -
 -------------------
 Temperature   298.150 Kelvin.  Pressure   1.00000 Atm.
 Atom     1 has atomic number  1 and mass   1.00783

 Molecular mass:    62.99564 amu.
 Principal axes and moments of inertia in atomic units:
                           1         2         3
     Eigenvalues --    85.75997 217.08956 302.84954
           X            0.79325  -0.60890   0.00000
           Y            0.60890   0.79325   0.00000
           Z            0.00000   0.00000   1.00000
 This molecule is an asymmetric top.
 Rotational symmetry number  1.
 Rotational temperatures (Kelvin)      1.00996     0.39898     0.28600
 Rotational constants (GHZ):          21.04410     8.31335     5.95920
 Zero-point vibrational energy      61765.7 (Joules/Mol)
                                   14.76234 (Kcal/Mol)
 Warning -- explicit consideration of   3 degrees of freedom as
           vibrations may cause significant error
 Vibrational temperatures:    505.09   625.07   764.53  1019.82  1207.93
          (Kelvin)           1396.07  2070.84  2269.70  4998.35

 Zero-point correction=                           0.023525 (Hartree/Particle)
 Thermal correction to Energy=                    0.027425
 Thermal correction to Enthalpy=                  0.028369
 Thermal correction to Gibbs Free Energy=        -0.002410
 Sum of electronic and zero-point Energies=           -280.431468
 Sum of electronic and thermal Energies=              -280.427568
 Sum of electronic and thermal Enthalpies=            -280.426624
 Sum of electronic and thermal Free Energies=         -280.457403

                     E (Thermal)             CV                S
                      KCal/Mol        Cal/Mol-Kelvin    Cal/Mol-Kelvin
 Total                   17.210             12.071             64.781
 Electronic               0.000              0.000              0.000
 Translational            0.889              2.981             38.341
 Rotational               0.889              2.981             23.249
 Vibrational             15.432              6.109              3.192
 Vibration     1          0.728              1.573              1.161
 Vibration     2          0.795              1.395              0.844
 Vibration     3          0.886              1.181              0.584

                       ! Non-Optimized Parameters !

 1\1\GINC-N2095\Freq\RMP2-FC\Aug-CC-pVTZ\H1N1O3\CGAVINH\06-Mar-2022\1\\
 #p freq mp2/aug-cc-pvtz density=current\\title\\0,1\H\O,1,r1\O,2,r2,1,
 a1\N,3,r3,2,a2,1,d1,0\O,4,r4,3,a3,2,d2,0\\r1=0.98537664\r2=1.42673666\
 r3=1.38110764\r4=1.19478846\a1=100.6355057\a2=111.44386368\a3=114.3339
 2022\d1=0.\d2=0.\\Version=ES64L-G16RevB.01\State=1-A'\HF=-279.5057929\
 MP2=-280.454993\RMSD=4.758e-09\RMSF=3.081e-03\ZeroPoint=0.0235253\Ther
 mal=0.0274253\Dipole=-0.0977749,0.,-0.412795\DipoleDeriv=0.3213875,0.,
 0.0310545,0.,0.2951949,0.,-0.0360905,0.,0.2134483,-0.5141288,0.,0.2853

 Normal termination of Gaussian 16 at Sun Mar  6 19:40:06 2022.
