 Gaussian 16, Revision B.01,
 Gaussian 16:  ES64L-G16RevB.01 20-Dec-2017

 ---------------------------------------
 #p freq mp2/aug-cc-pvtz density=current
 ---------------------------------------

 -----
 title
 -----
 Symbolic Z-matrix:
 Charge =  0 Multiplicity = 1

                         Standard orientation:
 ---------------------------------------------------------------------
 Center     Atomic      Atomic             Coordinates (Angstroms)
 Number     Number       Type             X           Y           Z
 ---------------------------------------------------------------------
      1          1           0        1.099348   -0.586297    0.000000
      2          8           0        1.300557    0.378318    0.000000
      3          8           0       -0.000000    0.914844    0.000000
      4          7           0       -0.986016   -0.052229   -0.000000
      5          8           0       -0.575212   -1.174174   -0.000000
 ---------------------------------------------------------------------

 SCF Done:  E(RHF) =  -279.507393631     A.U. after   14 cycles
 E2 =    -0.9476519674D+00 EUMP2 =    -0.28045504559796D+03
 E2 =    -0.9476519674D+00 EUMP2 =    -0.28045504559796D+03

 The electronic state is 1-A'.
 Alpha  occ. eigenvalues --  -20.71993 -20.68756 -20.66641 -15.82573  -1.64771
 Alpha  occ. eigenvalues --   -1.51198  -1.29121  -0.96149  -0.83835  -0.76039
 Alpha  occ. eigenvalues --   -0.74288  -0.63459  -0.62333  -0.62045  -0.50541
 Alpha  occ. eigenvalues --   -0.49407
 Alpha virt. eigenvalues --    0.03529   0.06016   0.09514   0.10057   0.11957
 Alpha virt. eigenvalues --    0.12299   0.14974   0.15395   0.17747   0.18005
 Alpha virt. eigenvalues --    0.18965   0.21111   0.21690   0.24638   0.25208

 Mulliken charges:
               1
     1  H    0.274515
     2  O   -0.272017
     3  O    0.043884
     4  N    0.150138
     5  O   -0.196520
 Sum of Mulliken charges =  -0.00000

 Dipole moment (field-independent basis, Debye):
    X=              0.0862    Y=             -1.0665    Z=              0.0000  Tot=              1.0700
 Quadrupole moment (field-independent basis, Debye-Ang):
   XX=            -23.3791   YY=            -22.9739   ZZ=            -21.9068
   XY=             -1.9289   XZ=             -0.0000   YZ=             -0.0000

  Exact polarizability:  30.592   4.255  29.871   0.000   0.000  17.564
 Approx polarizability:  24.168   0.665  27.589   0.000   0.000  15.485

                      1                      2                      3
                     A"                     A'                     A"
 Frequencies --    354.1388               399.9862               525.2721
 Red. masses --      1.5702                 7.0295                 2.8637
 Frc consts  --      0.1160                 0.6626                 0.4655
 IR Inten    --     61.9863                 8.0029                25.6736

                      4                      5                      6
                     A'                     A'                     A'
 Frequencies --    716.3697               868.7873               999.7093
 Red. masses --     13.3876                11.2887                10.7638
 Frc consts  --      4.0479                 5.0202                 6.3381
 IR Inten    --    222.2227                30.7974                11.7752

                      7                      8                      9
                     A'                     A'                     A'
 Frequencies --   1451.6443              1575.7176              3478.8503
 Red. masses --      1.3703                 5.1656                 1.0634
 Frc consts  --      1.7014                 7.5566                 7.5825
 IR Inten    --     79.5666               152.1515                43.7309

 - Thermochemistry -
 -------------------
 Temperature   298.150 Kelvin.  Pressure   1.00000 Atm.
 Atom     1 has atomic number  1 and mass   1.00783

 Molecular mass:    62.99564 amu.
 Principal axes and moments of inertia in atomic units:
                           1         2         3
     Eigenvalues --    83.35077 221.14360 304.49437
           X            0.78569  -0.61862   0.00000
           Y            0.61862   0.78569   0.00000
           Z           -0.00000   0.00000   1.00000
 This molecule is an asymmetric top.
 Rotational symmetry number  1.
 Rotational temperatures (Kelvin)      1.03915     0.39166     0.28445
 Rotational constants (GHZ):          21.65236     8.16095     5.92701
 Zero-point vibrational energy      62029.2 (Joules/Mol)
                                   14.82534 (Kcal/Mol)
 Warning -- explicit consideration of   3 degrees of freedom as
           vibrations may cause significant error
 Vibrational temperatures:    509.53   575.49   755.75  1030.70  1249.99
          (Kelvin)           1438.36  2088.59  2267.11  5005.29

 Zero-point correction=                           0.023626 (Hartree/Particle)
 Thermal correction to Energy=                    0.027544
 Thermal correction to Enthalpy=                  0.028488
 Thermal correction to Gibbs Free Energy=        -0.002327
 Sum of electronic and zero-point Energies=           -280.431420
 Sum of electronic and thermal Energies=              -280.427502
 Sum of electronic and thermal Enthalpies=            -280.426558
 Sum of electronic and thermal Free Energies=         -280.457372

                     E (Thermal)             CV                S
                      KCal/Mol        Cal/Mol-Kelvin    Cal/Mol-Kelvin
 Total                   17.284             12.058             64.855
 Electronic               0.000              0.000              0.000
 Translational            0.889              2.981             38.341
 Rotational               0.889              2.981             23.244
 Vibrational             15.507              6.097              3.270
 Vibration     1          0.730              1.567              1.148
 Vibration     2          0.766              1.470              0.963
 Vibration     3          0.880              1.194              0.598

                       ! Non-Optimized Parameters !

 1\1\GINC-N2109\Freq\RMP2-FC\Aug-CC-pVTZ\H1N1O3\CGAVINH\06-Mar-2022\1\\
 #p freq mp2/aug-cc-pvtz density=current\\title\\0,1\H\O,1,r1\O,2,r2,1,
 a1\N,3,r3,2,a2,1,d1,0\O,4,r4,3,a3,2,d2,0\\r1=0.98537664\r2=1.4068793\r
 3=1.38110764\r4=1.19478846\a1=100.6355057\a2=113.13777052\a3=114.33392
 022\d1=0.\d2=0.\\Version=ES64L-G16RevB.01\State=1-A'\HF=-279.5073936\M
 P2=-280.4550456\RMSD=4.084e-09\RMSF=3.451e-03\ZeroPoint=0.0236257\Ther
 mal=0.0275439\Dipole=-0.1188654,0.,-0.4038441\DipoleDeriv=0.3171243,0.
 ,0.038662,0.,0.2970456,0.,-0.0308712,0.,0.2019599,-0.5280905,0.,0.3030

 Normal termination of Gaussian 16 at Sun Mar  6 19:04:17 2022.
