 Gaussian 16, Revision B.01,
 Gaussian 16:  ES64L-G16RevB.01 20-Dec-2017

 ---------------------------------------
 #p freq mp2/aug-cc-pvtz density=current
 ---------------------------------------

 -----
 title
 -----
 Symbolic Z-matrix:
 Charge =  0 Multiplicity = 1

                         Standard orientation:
 ---------------------------------------------------------------------
 Center     Atomic      Atomic             Coordinates (Angstroms)
 Number     Number       Type             X           Y           Z
 ---------------------------------------------------------------------
      1          1           0        1.511402    1.728795    0.000000
      2          8           0        1.451306    0.761685   -0.000000
      3          8           0       -0.000000    0.659203    0.000000
      4          7           0       -0.257896   -0.776603   -0.000000
      5          8           0       -1.414571   -0.957460   -0.000000
 ---------------------------------------------------------------------

 SCF Done:  E(RHF) =  -279.501656213     A.U. after   14 cycles
 E2 =    -0.9449219538D+00 EUMP2 =    -0.28044657816691D+03
 E2 =    -0.9449219538D+00 EUMP2 =    -0.28044657816691D+03

 The electronic state is 1-A'.
 Alpha  occ. eigenvalues --  -20.69029 -20.68473 -20.66063 -15.81343  -1.62397
 Alpha  occ. eigenvalues --   -1.49519  -1.25530  -0.94771  -0.77134  -0.75994
 Alpha  occ. eigenvalues --   -0.71151  -0.68219  -0.62096  -0.58797  -0.48505
 Alpha  occ. eigenvalues --   -0.47211
 Alpha virt. eigenvalues --    0.02963   0.07145   0.08598   0.10223   0.13373
 Alpha virt. eigenvalues --    0.13375   0.14383   0.15386   0.17833   0.19436
 Alpha virt. eigenvalues --    0.20001   0.20602   0.22063   0.23514   0.23722

 Mulliken charges:
               1
     1  H    0.252807
     2  O   -0.205435
     3  O   -0.144387
     4  N    0.288394
     5  O   -0.191379
 Sum of Mulliken charges =  -0.00000

 Dipole moment (field-independent basis, Debye):
    X=              0.4590    Y=              1.3745    Z=              0.0000  Tot=              1.4491
 Quadrupole moment (field-independent basis, Debye-Ang):
   XX=            -22.6717   YY=            -18.4209   ZZ=            -22.0141
   XY=              3.1834   XZ=              0.0000   YZ=             -0.0000

  Exact polarizability:  33.967   9.731  30.645  -0.000   0.000  17.950
 Approx polarizability:  28.979   5.349  23.653  -0.000   0.000  15.530

 ******    1 imaginary frequencies (negative Signs) ******

                      1                      2                      3
                     A"                     A"                     A'
 Frequencies --   -281.3748               233.0221               334.3292
 Red. masses --      1.1408                10.6411                 8.8931
 Frc consts  --      0.0532                 0.3404                 0.5857
 IR Inten    --    124.4866                 0.7872                 1.9138

                      4                      5                      6
                     A'                     A'                     A'
 Frequencies --    437.9721               784.2804               967.8528
 Red. masses --     11.6670                12.6986                15.2234
 Frc consts  --      1.3186                 4.6020                 8.4020
 IR Inten    --    202.0942               173.0422                24.5492

                      7                      8                      9
                     A'                     A'                     A'
 Frequencies --   1371.7636              1676.2105              3778.6924
 Red. masses --      1.1364                13.2607                 1.0676
 Frc consts  --      1.2599                21.9520                 8.9815
 IR Inten    --    155.3938               140.1028                86.0139

 - Thermochemistry -
 -------------------
 Temperature   298.150 Kelvin.  Pressure   1.00000 Atm.
 Atom     1 has atomic number  1 and mass   1.00783

 Molecular mass:    62.99564 amu.
 Principal axes and moments of inertia in atomic units:
                           1         2         3
     Eigenvalues --    31.86640 365.22740 397.09380
           X            0.80151  -0.59798   0.00000
           Y            0.59798   0.80151   0.00000
           Z            0.00000  -0.00000   1.00000
 This molecule is an asymmetric top.
 Rotational symmetry number  1.
 Rotational temperatures (Kelvin)      2.71803     0.23715     0.21812
 Rotational constants (GHZ):          56.63462     4.94142     4.54487
    1 imaginary frequencies ignored.
 Zero-point vibrational energy      57325.8 (Joules/Mol)
                                   13.70119 (Kcal/Mol)
 Warning -- explicit consideration of   3 degrees of freedom as
           vibrations may cause significant error
 Vibrational temperatures:    335.27   481.03   630.14  1128.40  1392.52
          (Kelvin)           1973.66  2411.69  5436.70

 Zero-point correction=                           0.021834 (Hartree/Particle)
 Thermal correction to Energy=                    0.025966
 Thermal correction to Enthalpy=                  0.026910
 Thermal correction to Gibbs Free Energy=        -0.004292
 Sum of electronic and zero-point Energies=           -280.424744
 Sum of electronic and thermal Energies=              -280.420612
 Sum of electronic and thermal Enthalpies=            -280.419668
 Sum of electronic and thermal Free Energies=         -280.450871

                     E (Thermal)             CV                S
                      KCal/Mol        Cal/Mol-Kelvin    Cal/Mol-Kelvin
 Total                   16.294             11.994             65.672
 Electronic               0.000              0.000              0.000
 Translational            0.889              2.981             38.341
 Rotational               0.889              2.981             23.051
 Vibrational             14.517              6.032              4.280
 Vibration     1          0.654              1.790              1.856
 Vibration     2          0.716              1.607              1.239
 Vibration     3          0.798              1.387              0.833

                       ! Non-Optimized Parameters !

 1\1\GINC-N2127\Freq\RMP2-FC\Aug-CC-pVTZ\H1N1O3\CGAVINH\21-Feb-2022\1\\
 #p freq mp2/aug-cc-pvtz density=current\\title\\0,1\H\O,1,r1\O,2,r2,1,
 a1\N,3,r3,2,a2,1,d1,0\O,4,r4,3,a3,2,d2,0\\r1=0.96897556\r2=1.45491931\
 r3=1.45878406\r4=1.17072885\a1=97.59494903\a2=104.22191303\a3=109.0695
 5123\d1=180.\d2=180.\\Version=ES64L-G16RevB.01\State=1-A'\HF=-279.5016
 562\MP2=-280.4465782\RMSD=3.811e-09\RMSF=1.994e-03\ZeroPoint=0.0218342
 \Thermal=0.0259662\Dipole=-0.1466871,0.,-0.5509359\DipoleDeriv=0.26384
 5,0.,0.0458792,0.,0.3556747,0.,0.0868345,0.,0.2797665,-0.3424595,0.,-0

 Normal termination of Gaussian 16 at Mon Feb 21 20:47:08 2022.
