 Gaussian 16, Revision B.01,
 Gaussian 16:  ES64L-G16RevB.01 20-Dec-2017

 ---------------------------------------
 #p freq mp2/aug-cc-pvtz density=current
 ---------------------------------------

 -----
 title
 -----
 Symbolic Z-matrix:
 Charge =  0 Multiplicity = 1

                         Standard orientation:
 ---------------------------------------------------------------------
 Center     Atomic      Atomic             Coordinates (Angstroms)
 Number     Number       Type             X           Y           Z
 ---------------------------------------------------------------------
      1          1           0        1.136785   -0.585767    0.000000
      2          8           0        1.325721    0.381327    0.000000
      3          8           0       -0.000000    0.908623    0.000000
      4          7           0       -0.995822   -0.048350    0.000000
      5          8           0       -0.596475   -1.174423    0.000000
 ---------------------------------------------------------------------

 SCF Done:  E(RHF) =  -279.506551252     A.U. after   14 cycles
 E2 =    -0.9485632269D+00 EUMP2 =    -0.28045511447935D+03
 E2 =    -0.9485632269D+00 EUMP2 =    -0.28045511447935D+03

 The electronic state is 1-A'.
 Alpha  occ. eigenvalues --  -20.71820 -20.68650 -20.67002 -15.82607  -1.64250
 Alpha  occ. eigenvalues --   -1.50531  -1.29384  -0.96014  -0.83222  -0.75826
 Alpha  occ. eigenvalues --   -0.73896  -0.63940  -0.61884  -0.61730  -0.50385
 Alpha  occ. eigenvalues --   -0.49709
 Alpha virt. eigenvalues --    0.03480   0.06082   0.09517   0.10085   0.11973
 Alpha virt. eigenvalues --    0.12245   0.14865   0.15138   0.17764   0.18068
 Alpha virt. eigenvalues --    0.18995   0.21105   0.21668   0.24078   0.24651

 Mulliken charges:
               1
     1  H    0.281199
     2  O   -0.272441
     3  O    0.038244
     4  N    0.151628
     5  O   -0.198630
 Sum of Mulliken charges =  -0.00000

 Dipole moment (field-independent basis, Debye):
    X=              0.0932    Y=             -1.1062    Z=              0.0000  Tot=              1.1101
 Quadrupole moment (field-independent basis, Debye-Ang):
   XX=            -23.2709   YY=            -23.0320   ZZ=            -21.9378
   XY=             -2.0032   XZ=              0.0000   YZ=              0.0000

  Exact polarizability:  31.177   4.272  29.949   0.000   0.000  17.644
 Approx polarizability:  24.720   0.636  27.647  -0.000  -0.000  15.529

                      1                      2                      3
                     A"                     A'                     A"
 Frequencies --    354.2867               370.0155               517.5586
 Red. masses --      1.5465                 7.0010                 2.9608
 Frc consts  --      0.1144                 0.5647                 0.4673
 IR Inten    --     63.6622                 7.7182                25.7710

                      4                      5                      6
                     A'                     A'                     A'
 Frequencies --    713.4967               835.0676               971.2419
 Red. masses --     13.2183                12.2017                 9.5543
 Frc consts  --      3.9647                 5.0132                 5.3101
 IR Inten    --    221.2886                28.2708                13.0220

                      7                      8                      9
                     A'                     A'                     A'
 Frequencies --   1430.5498              1565.7035              3496.4542
 Red. masses --      1.2851                 7.2209                 1.0640
 Frc consts  --      1.5496                10.4294                 7.6637
 IR Inten    --     77.8307               153.3450                38.6342

 - Thermochemistry -
 -------------------
 Temperature   298.150 Kelvin.  Pressure   1.00000 Atm.
 Atom     1 has atomic number  1 and mass   1.00783

 Molecular mass:    62.99564 amu.
 Principal axes and moments of inertia in atomic units:
                           1         2         3
     Eigenvalues --    83.54522 226.90985 310.45506
           X            0.79816  -0.60244   0.00000
           Y            0.60244   0.79816   0.00000
           Z            0.00000   0.00000   1.00000
 This molecule is an asymmetric top.
 Rotational symmetry number  1.
 Rotational temperatures (Kelvin)      1.03673     0.38171     0.27899
 Rotational constants (GHZ):          21.60197     7.95356     5.81321
 Zero-point vibrational energy      61334.8 (Joules/Mol)
                                   14.65936 (Kcal/Mol)
 Warning -- explicit consideration of   3 degrees of freedom as
           vibrations may cause significant error
 Vibrational temperatures:    509.74   532.37   744.65  1026.56  1201.48
          (Kelvin)           1397.40  2058.24  2252.70  5030.62

 Zero-point correction=                           0.023361 (Hartree/Particle)
 Thermal correction to Energy=                    0.027329
 Thermal correction to Enthalpy=                  0.028273
 Thermal correction to Gibbs Free Energy=        -0.002646
 Sum of electronic and zero-point Energies=           -280.431753
 Sum of electronic and thermal Energies=              -280.427785
 Sum of electronic and thermal Enthalpies=            -280.426841
 Sum of electronic and thermal Free Energies=         -280.457760

                     E (Thermal)             CV                S
                      KCal/Mol        Cal/Mol-Kelvin    Cal/Mol-Kelvin
 Total                   17.149             12.236             65.075
 Electronic               0.000              0.000              0.000
 Translational            0.889              2.981             38.341
 Rotational               0.889              2.981             23.291
 Vibrational             15.372              6.274              3.443
 Vibration     1          0.730              1.566              1.147
 Vibration     2          0.742              1.534              1.080
 Vibration     3          0.873              1.211              0.616

                       ! Non-Optimized Parameters !

 1\1\GINC-N2219\Freq\RMP2-FC\Aug-CC-pVTZ\H1N1O3\CGAVINH\06-Mar-2022\1\\
 #p freq mp2/aug-cc-pvtz density=current\\title\\0,1\H\O,1,r1\O,2,r2,1,
 a1\N,3,r3,2,a2,1,d1,0\O,4,r4,3,a3,2,d2,0\\r1=0.98537664\r2=1.42673666\
 r3=1.38110764\r4=1.19478846\a1=100.6355057\a2=114.44986512\a3=114.3339
 2022\d1=0.\d2=0.\\Version=ES64L-G16RevB.01\State=1-A'\HF=-279.5065513\
 MP2=-280.4551145\RMSD=4.045e-09\RMSF=2.093e-03\ZeroPoint=0.0233612\The
 rmal=0.0273291\Dipole=-0.119429,0.,-0.4201093\DipoleDeriv=0.3133709,0.
 ,0.0426888,0.,0.3002422,0.,-0.0160064,0.,0.1903587,-0.5398659,0.,0.278

 Normal termination of Gaussian 16 at Sun Mar  6 19:34:26 2022.
