 Gaussian 16, Revision B.01,
 Gaussian 16:  ES64L-G16RevB.01 20-Dec-2017

 ---------------------------------------
 #p freq mp2/aug-cc-pvtz density=current
 ---------------------------------------

 -----
 title
 -----
 Symbolic Z-matrix:
 Charge =  0 Multiplicity = 1

                         Standard orientation:
 ---------------------------------------------------------------------
 Center     Atomic      Atomic             Coordinates (Angstroms)
 Number     Number       Type             X           Y           Z
 ---------------------------------------------------------------------
      1          1           0        1.545198    1.693573   -0.000000
      2          8           0        1.453860    0.728911   -0.000000
      3          8           0        0.000000    0.673412   -0.000000
      4          7           0       -0.256108   -0.762714    0.000000
      5          8           0       -1.422916   -0.946645    0.000000
 ---------------------------------------------------------------------

 SCF Done:  E(RHF) =  -279.499734486     A.U. after   14 cycles
 E2 =    -0.9468527486D+00 EUMP2 =    -0.28044658723424D+03
 E2 =    -0.9468527486D+00 EUMP2 =    -0.28044658723424D+03

 The electronic state is 1-A'.
 Alpha  occ. eigenvalues --  -20.69331 -20.68387 -20.66131 -15.81436  -1.61576
 Alpha  occ. eigenvalues --   -1.49546  -1.25545  -0.94951  -0.77166  -0.75645
 Alpha  occ. eigenvalues --   -0.70984  -0.67805  -0.61824  -0.59008  -0.48607
 Alpha  occ. eigenvalues --   -0.47452
 Alpha virt. eigenvalues --    0.02935   0.06845   0.08611   0.10172   0.13381
 Alpha virt. eigenvalues --    0.13415   0.14386   0.15428   0.17808   0.19429
 Alpha virt. eigenvalues --    0.19943   0.20634   0.22046   0.23456   0.23731

 Mulliken charges:
               1
     1  H    0.250617
     2  O   -0.200753
     3  O   -0.144877
     4  N    0.290541
     5  O   -0.195528
 Sum of Mulliken charges =  -0.00000

 Dipole moment (field-independent basis, Debye):
    X=              0.5469    Y=              1.4066    Z=             -0.0000  Tot=              1.5092
 Quadrupole moment (field-independent basis, Debye-Ang):
   XX=            -22.5227   YY=            -18.6157   ZZ=            -22.0278
   XY=              3.2213   XZ=              0.0000   YZ=              0.0000

  Exact polarizability:  34.111   9.585  30.395  -0.000  -0.000  17.948
 Approx polarizability:  29.241   5.191  23.612  -0.000  -0.000  15.568

 ******    1 imaginary frequencies (negative Signs) ******

                      1                      2                      3
                     A"                     A"                     A'
 Frequencies --   -271.0321               260.2005               348.6249
 Red. masses --      1.1307                11.2829                 8.4927
 Frc consts  --      0.0489                 0.4501                 0.6082
 IR Inten    --    125.1621                 0.3655                 7.9621

                      4                      5                      6
                     A'                     A'                     A'
 Frequencies --    446.3107               785.4312               965.9987
 Red. masses --     12.4704                13.1439                15.3953
 Frc consts  --      1.4635                 4.7774                 8.4643
 IR Inten    --    197.0432               170.6902                23.8858

                      7                      8                      9
                     A'                     A'                     A'
 Frequencies --   1369.9057              1611.7629              3778.7979
 Red. masses --      1.1419                12.0341                 1.0676
 Frc consts  --      1.2626                18.4189                 8.9814
 IR Inten    --    159.9975               113.3100                83.3344

 - Thermochemistry -
 -------------------
 Temperature   298.150 Kelvin.  Pressure   1.00000 Atm.
 Atom     1 has atomic number  1 and mass   1.00783

 Molecular mass:    62.99564 amu.
 Principal axes and moments of inertia in atomic units:
                           1         2         3
     Eigenvalues --    32.88291 361.92604 394.80894
           X            0.80878  -0.58811   0.00000
           Y            0.58811   0.80878   0.00000
           Z            0.00000  -0.00000   1.00000
 This molecule is an asymmetric top.
 Rotational symmetry number  1.
 Rotational temperatures (Kelvin)      2.63401     0.23931     0.21938
 Rotational constants (GHZ):          54.88387     4.98649     4.57118
    1 imaginary frequencies ignored.
 Zero-point vibrational energy      57223.6 (Joules/Mol)
                                   13.67676 (Kcal/Mol)
 Warning -- explicit consideration of   3 degrees of freedom as
           vibrations may cause significant error
 Vibrational temperatures:    374.37   501.59   642.14  1130.06  1389.86
          (Kelvin)           1970.99  2318.97  5436.85

 Zero-point correction=                           0.021795 (Hartree/Particle)
 Thermal correction to Energy=                    0.025866
 Thermal correction to Enthalpy=                  0.026810
 Thermal correction to Gibbs Free Energy=        -0.004264
 Sum of electronic and zero-point Energies=           -280.424792
 Sum of electronic and thermal Energies=              -280.420721
 Sum of electronic and thermal Enthalpies=            -280.419777
 Sum of electronic and thermal Free Energies=         -280.450852

                     E (Thermal)             CV                S
                      KCal/Mol        Cal/Mol-Kelvin    Cal/Mol-Kelvin
 Total                   16.231             11.913             65.402
 Electronic               0.000              0.000              0.000
 Translational            0.889              2.981             38.341
 Rotational               0.889              2.981             23.067
 Vibrational             14.454              5.951              3.994
 Vibration     1          0.668              1.745              1.660
 Vibration     2          0.726              1.578              1.172
 Vibration     3          0.806              1.369              0.807

                       ! Non-Optimized Parameters !

 1\1\GINC-N2127\Freq\RMP2-FC\Aug-CC-pVTZ\H1N1O3\CGAVINH\21-Feb-2022\1\\
 #p freq mp2/aug-cc-pvtz density=current\\title\\0,1\H\O,1,r1\O,2,r2,1,
 a1\N,3,r3,2,a2,1,d1,0\O,4,r4,3,a3,2,d2,0\\r1=0.96897556\r2=1.45491931\
 r3=1.45878406\r4=1.18121603\a1=97.59494903\a2=102.29752444\a3=109.0695
 5123\d1=180.\d2=180.\\Version=ES64L-G16RevB.01\State=1-A'\HF=-279.4997
 345\MP2=-280.4465872\RMSD=4.079e-09\RMSF=5.262e-03\ZeroPoint=0.0217953
 \Thermal=0.0258662\Dipole=-0.1620337,0.,-0.57121\DipoleDeriv=0.2664017
 ,0.,0.0484584,0.,0.3558964,0.,0.0828255,0.,0.276803,-0.3300834,0.,-0.2

 Normal termination of Gaussian 16 at Mon Feb 21 20:29:18 2022.
