 Gaussian 16, Revision B.01,
 Gaussian 16:  ES64L-G16RevB.01 20-Dec-2017

 ---------------------------------------
 #p freq mp2/aug-cc-pvtz density=current
 ---------------------------------------

 -----
 title
 -----
 Symbolic Z-matrix:
 Charge =  0 Multiplicity = 1

                         Standard orientation:
 ---------------------------------------------------------------------
 Center     Atomic      Atomic             Coordinates (Angstroms)
 Number     Number       Type             X           Y           Z
 ---------------------------------------------------------------------
      1          1           0        0.542686   -1.137509    0.067644
      2          8           0        1.276733   -0.484466   -0.007706
      3          8           0        0.542786    0.738974    0.002105
      4          7           0       -0.825473    0.551022    0.002626
      5          8           0       -1.165066   -0.594463   -0.005153
 ---------------------------------------------------------------------

 SCF Done:  E(RHF) =  -279.506393610     A.U. after   14 cycles
 E2 =    -0.9487788823D+00 EUMP2 =    -0.28045517249196D+03
 E2 =    -0.9487788823D+00 EUMP2 =    -0.28045517249196D+03

 The electronic state is 1-A.
 Alpha  occ. eigenvalues --  -20.71975 -20.68710 -20.66839 -15.82589  -1.64415
 Alpha  occ. eigenvalues --   -1.50512  -1.29374  -0.96027  -0.83439  -0.75883
 Alpha  occ. eigenvalues --   -0.74003  -0.63780  -0.61914  -0.61739  -0.50460
 Alpha  occ. eigenvalues --   -0.49756
 Alpha virt. eigenvalues --    0.03502   0.06035   0.09512   0.10039   0.11941
 Alpha virt. eigenvalues --    0.12263   0.14958   0.15197   0.17713   0.18074
 Alpha virt. eigenvalues --    0.18947   0.21140   0.21679   0.24243   0.24630

 Mulliken charges:
               1
     1  H    0.278194
     2  O   -0.273921
     3  O    0.037466
     4  N    0.154296
     5  O   -0.196036
 Sum of Mulliken charges =  -0.00000

 Dipole moment (field-independent basis, Debye):
    X=             -0.6008    Y=             -0.9126    Z=              0.1075  Tot=              1.0979
 Quadrupole moment (field-independent basis, Debye-Ang):
   XX=            -25.1080   YY=            -21.2178   ZZ=            -21.9212
   XY=             -0.3890   XZ=              0.0502   YZ=             -0.1925

  Exact polarizability:  34.487   0.730  26.279   0.007  -0.041  17.628
 Approx polarizability:  26.129   1.632  26.080  -0.056  -0.036  15.526

                      1                      2                      3
                      A                      A                      A
 Frequencies --    343.5759               399.4914               520.7159
 Red. masses --      1.5412                 6.5667                 3.0904
 Frc consts  --      0.1072                 0.6175                 0.4937
 IR Inten    --     62.8171                 9.2316                23.5611

                      4                      5                      6
                      A                      A                      A
 Frequencies --    711.5362               836.9966               970.9840
 Red. masses --     12.9861                12.3770                 9.7912
 Frc consts  --      3.8737                 5.1087                 5.4389
 IR Inten    --    217.5880                31.2430                12.7183

                      7                      8                      9
                      A                      A                      A
 Frequencies --   1435.5247              1570.0203              3488.7172
 Red. masses --      1.3034                 6.4215                 1.0638
 Frc consts  --      1.5825                 9.3261                 7.6285
 IR Inten    --     79.6569               149.8579                42.0554

 - Thermochemistry -
 -------------------
 Temperature   298.150 Kelvin.  Pressure   1.00000 Atm.
 Atom     1 has atomic number  1 and mass   1.00783

 Molecular mass:    62.99564 amu.
 Principal axes and moments of inertia in atomic units:
                           1         2         3
     Eigenvalues --    84.53640 222.64000 307.13494
           X            0.99987  -0.01599   0.00063
           Y            0.01599   0.99987  -0.00329
           Z           -0.00057   0.00330   0.99999
 This molecule is an asymmetric top.
 Rotational symmetry number  1.
 Rotational temperatures (Kelvin)      1.02458     0.38903     0.28201
 Rotational constants (GHZ):          21.34869     8.10610     5.87605
 Zero-point vibrational energy      61473.5 (Joules/Mol)
                                   14.69251 (Kcal/Mol)
 Warning -- explicit consideration of   3 degrees of freedom as
           vibrations may cause significant error
 Vibrational temperatures:    494.33   574.78   749.19  1023.74  1204.25
          (Kelvin)           1397.03  2065.40  2258.91  5019.49

 Zero-point correction=                           0.023414 (Hartree/Particle)
 Thermal correction to Energy=                    0.027362
 Thermal correction to Enthalpy=                  0.028306
 Thermal correction to Gibbs Free Energy=        -0.002570
 Sum of electronic and zero-point Energies=           -280.431758
 Sum of electronic and thermal Energies=              -280.427811
 Sum of electronic and thermal Enthalpies=            -280.426866
 Sum of electronic and thermal Free Energies=         -280.457742

                     E (Thermal)             CV                S
                      KCal/Mol        Cal/Mol-Kelvin    Cal/Mol-Kelvin
 Total                   17.170             12.187             64.983
 Electronic               0.000              0.000              0.000
 Translational            0.889              2.981             38.341
 Rotational               0.889              2.981             23.273
 Vibrational             15.392              6.225              3.370
 Vibration     1          0.722              1.588              1.195
 Vibration     2          0.766              1.471              0.965
 Vibration     3          0.876              1.204              0.608

                       ! Non-Optimized Parameters !

 1\1\GINC-N2199\Freq\RMP2-FC\Aug-CC-pVTZ\H1N1O3\CGAVINH\06-Mar-2022\1\\
 #p freq mp2/aug-cc-pvtz density=current\\title\\0,1\H\O,1,r1\O,2,r2,1,
 a1\N,3,r3,2,a2,1,d1,0\O,4,r4,3,a3,2,d2,0\\r1=0.98537664\r2=1.42673666\
 r3=1.38110764\r4=1.19478846\a1=100.6355057\a2=113.13777052\a3=114.3339
 2022\d1=-4.6815623\d2=0.\\Version=ES64L-G16RevB.01\State=1-A\HF=-279.5
 063936\MP2=-280.4551725\RMSD=9.883e-09\RMSF=5.325e-04\ZeroPoint=0.0234
 14\Thermal=0.0273619\Dipole=-0.1109058,0.0127987,-0.4172685\DipoleDeri
 v=0.3156925,-0.0079042,0.038951,-0.0109588,0.2987436,-0.0025346,-0.022

 Normal termination of Gaussian 16 at Sun Mar  6 19:56:14 2022.
