 Gaussian 16, Revision B.01,
 Gaussian 16:  ES64L-G16RevB.01 20-Dec-2017

 ---------------------------------------
 #p freq mp2/aug-cc-pvtz density=current
 ---------------------------------------

 -----
 title
 -----
 Symbolic Z-matrix:
 Charge =  0 Multiplicity = 1

                         Standard orientation:
 ---------------------------------------------------------------------
 Center     Atomic      Atomic             Coordinates (Angstroms)
 Number     Number       Type             X           Y           Z
 ---------------------------------------------------------------------
      1          1           0        1.117841   -0.586494   -0.000000
      2          8           0        1.318963    0.378139   -0.000000
      3          8           0        0.000000    0.922119    0.000000
      4          7           0       -0.997119   -0.056021    0.000000
      5          8           0       -0.586214   -1.177928    0.000000
 ---------------------------------------------------------------------

 SCF Done:  E(RHF) =  -279.504996005     A.U. after   14 cycles
 E2 =    -0.9501501731D+00 EUMP2 =    -0.28045514617807D+03
 E2 =    -0.9501501731D+00 EUMP2 =    -0.28045514617807D+03

 The electronic state is 1-A'.
 Alpha  occ. eigenvalues --  -20.71721 -20.69087 -20.66737 -15.82794  -1.64069
 Alpha  occ. eigenvalues --   -1.50497  -1.28818  -0.96125  -0.83298  -0.75710
 Alpha  occ. eigenvalues --   -0.73650  -0.63698  -0.61982  -0.61909  -0.50436
 Alpha  occ. eigenvalues --   -0.49596
 Alpha virt. eigenvalues --    0.03514   0.05797   0.09504   0.10034   0.11972
 Alpha virt. eigenvalues --    0.12226   0.14969   0.15244   0.17762   0.18008
 Alpha virt. eigenvalues --    0.18988   0.21086   0.21676   0.24209   0.24629

 Mulliken charges:
               1
     1  H    0.277703
     2  O   -0.272114
     3  O    0.025595
     4  N    0.159553
     5  O   -0.190738
 Sum of Mulliken charges =  -0.00000

 Dipole moment (field-independent basis, Debye):
    X=              0.0126    Y=             -1.1672    Z=             -0.0000  Tot=              1.1673
 Quadrupole moment (field-independent basis, Debye-Ang):
   XX=            -23.3244   YY=            -22.9751   ZZ=            -21.9588
   XY=             -1.9411   XZ=              0.0000   YZ=             -0.0000

  Exact polarizability:  31.001   4.252  30.085  -0.000   0.000  17.672
 Approx polarizability:  24.693   0.596  27.908  -0.000   0.000  15.541

                      1                      2                      3
                     A"                     A'                     A"
 Frequencies --    346.2519               384.2484               519.9323
 Red. masses --      1.5176                 7.1901                 3.0581
 Frc consts  --      0.1072                 0.6255                 0.4871
 IR Inten    --     63.8419                 8.9786                24.2078

                      4                      5                      6
                     A'                     A'                     A'
 Frequencies --    656.6205               835.3512               967.0878
 Red. masses --     13.2093                12.1750                10.0059
 Frc consts  --      3.3555                 5.0056                 5.5136
 IR Inten    --    230.9394                28.7715                11.5947

                      7                      8                      9
                     A'                     A'                     A'
 Frequencies --   1434.8487              1562.4408              3489.2951
 Red. masses --      1.3162                 6.0396                 1.0640
 Frc consts  --      1.5966                 8.6869                 7.6322
 IR Inten    --     79.0314               150.0633                40.0584

 - Thermochemistry -
 -------------------
 Temperature   298.150 Kelvin.  Pressure   1.00000 Atm.
 Atom     1 has atomic number  1 and mass   1.00783

 Molecular mass:    62.99564 amu.
 Principal axes and moments of inertia in atomic units:
                           1         2         3
     Eigenvalues --    84.55235 225.95365 310.50601
           X            0.79152  -0.61114   0.00000
           Y            0.61114   0.79152   0.00000
           Z           -0.00000   0.00000   1.00000
 This molecule is an asymmetric top.
 Rotational symmetry number  1.
 Rotational temperatures (Kelvin)      1.02438     0.38333     0.27894
 Rotational constants (GHZ):          21.34466     7.98722     5.81226
 Zero-point vibrational energy      60986.1 (Joules/Mol)
                                   14.57602 (Kcal/Mol)
 Warning -- explicit consideration of   3 degrees of freedom as
           vibrations may cause significant error
 Vibrational temperatures:    498.18   552.85   748.07   944.73  1201.88
          (Kelvin)           1391.42  2064.43  2248.00  5020.32

 Zero-point correction=                           0.023228 (Hartree/Particle)
 Thermal correction to Energy=                    0.027213
 Thermal correction to Enthalpy=                  0.028158
 Thermal correction to Gibbs Free Energy=        -0.002787
 Sum of electronic and zero-point Energies=           -280.431918
 Sum of electronic and thermal Energies=              -280.427933
 Sum of electronic and thermal Enthalpies=            -280.426989
 Sum of electronic and thermal Free Energies=         -280.457933

                     E (Thermal)             CV                S
                      KCal/Mol        Cal/Mol-Kelvin    Cal/Mol-Kelvin
 Total                   17.077             12.332             65.129
 Electronic               0.000              0.000              0.000
 Translational            0.889              2.981             38.341
 Rotational               0.889              2.981             23.299
 Vibrational             15.299              6.370              3.489
 Vibration     1          0.724              1.583              1.183
 Vibration     2          0.753              1.504              1.022
 Vibration     3          0.875              1.206              0.610

                       ! Non-Optimized Parameters !

 1\1\GINC-N2228\Freq\RMP2-FC\Aug-CC-pVTZ\H1N1O3\CGAVINH\06-Mar-2022\1\\
 #p freq mp2/aug-cc-pvtz density=current\\title\\0,1\H\O,1,r1\O,2,r2,1,
 a1\N,3,r3,2,a2,1,d1,0\O,4,r4,3,a3,2,d2,0\\r1=0.98537664\r2=1.42673666\
 r3=1.3967841\r4=1.19478846\a1=100.6355057\a2=113.13777052\a3=114.33392
 022\d1=0.\d2=0.\\Version=ES64L-G16RevB.01\State=1-A'\HF=-279.504996\MP
 2=-280.4551462\RMSD=4.789e-09\RMSF=2.000e-03\ZeroPoint=0.0232284\Therm
 al=0.0272134\Dipole=-0.0985966,0.,-0.4485224\DipoleDeriv=0.3131877,0.,
 0.0390112,0.,0.2978559,0.,-0.0225602,0.,0.1934364,-0.5238644,0.,0.2797

 Normal termination of Gaussian 16 at Sun Mar  6 19:08:04 2022.
