 Gaussian 16, Revision B.01,
 Gaussian 16:  ES64L-G16RevB.01 20-Dec-2017

 ---------------------------------------
 #p freq mp2/aug-cc-pvtz density=current
 ---------------------------------------

 -----
 title
 -----
 Symbolic Z-matrix:
 Charge =  0 Multiplicity = 1

                         Standard orientation:
 ---------------------------------------------------------------------
 Center     Atomic      Atomic             Coordinates (Angstroms)
 Number     Number       Type             X           Y           Z
 ---------------------------------------------------------------------
      1          1           0        1.089570   -0.606299    0.000000
      2          8           0        1.308610    0.354424    0.000000
      3          8           0       -0.000000    0.922857    0.000000
      4          7           0       -0.988265   -0.041918    0.000000
      5          8           0       -0.580075   -1.164816    0.000000
 ---------------------------------------------------------------------

 SCF Done:  E(RHF) =  -279.506151406     A.U. after   14 cycles
 E2 =    -0.9490144269D+00 EUMP2 =    -0.28045516583321D+03
 E2 =    -0.9490144269D+00 EUMP2 =    -0.28045516583321D+03

 The electronic state is 1-A'.
 Alpha  occ. eigenvalues --  -20.72092 -20.68781 -20.66698 -15.82602  -1.64563
 Alpha  occ. eigenvalues --   -1.50502  -1.29373  -0.96051  -0.83660  -0.75941
 Alpha  occ. eigenvalues --   -0.74071  -0.63619  -0.61939  -0.61805  -0.50533
 Alpha  occ. eigenvalues --   -0.49779
 Alpha virt. eigenvalues --    0.03525   0.05983   0.09505   0.10007   0.11970
 Alpha virt. eigenvalues --    0.12271   0.14969   0.15258   0.17743   0.18008
 Alpha virt. eigenvalues --    0.18967   0.21098   0.21671   0.24365   0.24625

 Mulliken charges:
               1
     1  H    0.274909
     2  O   -0.275419
     3  O    0.037692
     4  N    0.155843
     5  O   -0.193024
 Sum of Mulliken charges =  -0.00000

 Dipole moment (field-independent basis, Debye):
    X=              0.0222    Y=             -1.0854    Z=              0.0000  Tot=              1.0856
 Quadrupole moment (field-independent basis, Debye-Ang):
   XX=            -23.4539   YY=            -22.8782   ZZ=            -21.9300
   XY=             -1.9534   XZ=              0.0000   YZ=              0.0000

  Exact polarizability:  30.744   4.055  29.792   0.000   0.000  17.601
 Approx polarizability:  24.450   0.439  27.671  -0.000  -0.000  15.504

                      1                      2                      3
                     A"                     A'                     A"
 Frequencies --    352.5661               417.2875               527.7852
 Red. masses --      1.5614                 7.1161                 2.8850
 Frc consts  --      0.1144                 0.7301                 0.4735
 IR Inten    --     62.3206                 7.8280                25.1817

                      4                      5                      6
                     A'                     A'                     A'
 Frequencies --    709.9805               838.3031               970.6665
 Red. masses --     13.4301                12.5092                 9.9237
 Frc consts  --      3.9886                 5.1794                 5.5089
 IR Inten    --    214.4121                32.3891                12.6101

                      7                      8                      9
                     A'                     A'                     A'
 Frequencies --   1436.7184              1574.1220              3480.4439
 Red. masses --      1.3245                 5.8393                 1.0636
 Frc consts  --      1.6108                 8.5249                 7.5910
 IR Inten    --     81.4070               148.4205                46.0859

 - Thermochemistry -
 -------------------
 Temperature   298.150 Kelvin.  Pressure   1.00000 Atm.
 Atom     1 has atomic number  1 and mass   1.00783

 Molecular mass:    62.99564 amu.
 Principal axes and moments of inertia in atomic units:
                           1         2         3
     Eigenvalues --    85.20816 219.58038 304.78853
           X            0.79474  -0.60696   0.00000
           Y            0.60696   0.79474   0.00000
           Z            0.00000   0.00000   1.00000
 This molecule is an asymmetric top.
 Rotational symmetry number  1.
 Rotational temperatures (Kelvin)      1.01650     0.39445     0.28418
 Rotational constants (GHZ):          21.18038     8.21905     5.92129
 Zero-point vibrational energy      61654.8 (Joules/Mol)
                                   14.73584 (Kcal/Mol)
 Warning -- explicit consideration of   3 degrees of freedom as
           vibrations may cause significant error
 Vibrational temperatures:    507.26   600.38   759.37  1021.50  1206.13
          (Kelvin)           1396.57  2067.12  2264.81  5007.58

 Zero-point correction=                           0.023483 (Hartree/Particle)
 Thermal correction to Energy=                    0.027399
 Thermal correction to Enthalpy=                  0.028344
 Thermal correction to Gibbs Free Energy=        -0.002469
 Sum of electronic and zero-point Energies=           -280.431683
 Sum of electronic and thermal Energies=              -280.427766
 Sum of electronic and thermal Enthalpies=            -280.426822
 Sum of electronic and thermal Free Energies=         -280.457635

                     E (Thermal)             CV                S
                      KCal/Mol        Cal/Mol-Kelvin    Cal/Mol-Kelvin
 Total                   17.193             12.114             64.850
 Electronic               0.000              0.000              0.000
 Translational            0.889              2.981             38.341
 Rotational               0.889              2.981             23.260
 Vibrational             15.416              6.153              3.250
 Vibration     1          0.729              1.570              1.155
 Vibration     2          0.780              1.433              0.901
 Vibration     3          0.883              1.189              0.592

                       ! Non-Optimized Parameters !

 1\1\GINC-N2199\Freq\RMP2-FC\Aug-CC-pVTZ\H1N1O3\CGAVINH\06-Mar-2022\1\\
 #p freq mp2/aug-cc-pvtz density=current\\title\\0,1\H\O,1,r1\O,2,r2,1,
 a1\N,3,r3,2,a2,1,d1,0\O,4,r4,3,a3,2,d2,0\\r1=0.98537664\r2=1.42673666\
 r3=1.38110764\r4=1.19478846\a1=100.6355057\a2=112.20997953\a3=114.3339
 2022\d1=0.\d2=0.\\Version=ES64L-G16RevB.01\State=1-A'\HF=-279.5061514\
 MP2=-280.4551658\RMSD=4.623e-09\RMSF=1.717e-03\ZeroPoint=0.0234831\The
 rmal=0.0273993\Dipole=-0.1034461,0.,-0.4143882\DipoleDeriv=0.3193821,0
 .,0.034222,0.,0.2965014,0.,-0.030726,0.,0.2071441,-0.5203989,0.,0.2835

 Normal termination of Gaussian 16 at Sun Mar  6 19:38:28 2022.
