 Gaussian 16, Revision B.01,
 Gaussian 16:  ES64L-G16RevB.01 20-Dec-2017

 ---------------------------------------
 #p freq mp2/aug-cc-pvtz density=current
 ---------------------------------------

 -----
 title
 -----
 Symbolic Z-matrix:
 Charge =  0 Multiplicity = 1

                         Standard orientation:
 ---------------------------------------------------------------------
 Center     Atomic      Atomic             Coordinates (Angstroms)
 Number     Number       Type             X           Y           Z
 ---------------------------------------------------------------------
      1          1           0        1.125146   -0.591005    0.000000
      2          8           0        1.321586    0.374593    0.000000
      3          8           0       -0.000000    0.912168    0.000000
      4          7           0       -0.993989   -0.046708    0.000000
      5          8           0       -0.592489   -1.172016    0.000000
 ---------------------------------------------------------------------

 SCF Done:  E(RHF) =  -279.506536528     A.U. after   14 cycles
 E2 =    -0.9486624965D+00 EUMP2 =    -0.28045519902412D+03
 E2 =    -0.9486624965D+00 EUMP2 =    -0.28045519902412D+03

 The electronic state is 1-A'.
 Alpha  occ. eigenvalues --  -20.71888 -20.68682 -20.66930 -15.82604  -1.64324
 Alpha  occ. eigenvalues --   -1.50525  -1.29381  -0.96023  -0.83325  -0.75854
 Alpha  occ. eigenvalues --   -0.73939  -0.63851  -0.61865  -0.61797  -0.50421
 Alpha  occ. eigenvalues --   -0.49728
 Alpha virt. eigenvalues --    0.03492   0.06058   0.09516   0.10065   0.11973
 Alpha virt. eigenvalues --    0.12251   0.14896   0.15165   0.17760   0.18054
 Alpha virt. eigenvalues --    0.18988   0.21103   0.21669   0.24154   0.24644

 Mulliken charges:
               1
     1  H    0.279954
     2  O   -0.273188
     3  O    0.038089
     4  N    0.152633
     5  O   -0.197488
 Sum of Mulliken charges =  -0.00000

 Dipole moment (field-independent basis, Debye):
    X=              0.0757    Y=             -1.1010    Z=              0.0000  Tot=              1.1036
 Quadrupole moment (field-independent basis, Debye-Ang):
   XX=            -23.3166   YY=            -22.9941   ZZ=            -21.9360
   XY=             -1.9910   XZ=              0.0000   YZ=              0.0000

  Exact polarizability:  31.068   4.216  29.909   0.000   0.000  17.633
 Approx polarizability:  24.653   0.586  27.652  -0.000  -0.000  15.523

                      1                      2                      3
                     A"                     A'                     A"
 Frequencies --    354.1783               381.3335               520.0424
 Red. masses --      1.5511                 7.0240                 2.9383
 Frc consts  --      0.1146                 0.6018                 0.4682
 IR Inten    --     63.2894                 7.7375                25.6705

                      4                      5                      6
                     A'                     A'                     A'
 Frequencies --    712.6173               835.8022               971.1626
 Red. masses --     13.2672                12.2749                 9.6398
 Frc consts  --      3.9696                 5.0521                 5.3568
 IR Inten    --    219.5480                29.3587                12.8994

                      7                      8                      9
                     A'                     A'                     A'
 Frequencies --   1431.9016              1567.6137              3492.8395
 Red. masses --      1.2931                 6.8736                 1.0639
 Frc consts  --      1.5621                 9.9520                 7.6472
 IR Inten    --     78.7354               151.9921                40.2843

 - Thermochemistry -
 -------------------
 Temperature   298.150 Kelvin.  Pressure   1.00000 Atm.
 Atom     1 has atomic number  1 and mass   1.00783

 Molecular mass:    62.99564 amu.
 Principal axes and moments of inertia in atomic units:
                           1         2         3
     Eigenvalues --    83.96340 225.08937 309.05277
           X            0.79743  -0.60341   0.00000
           Y            0.60341   0.79743   0.00000
           Z            0.00000   0.00000   1.00000
 This molecule is an asymmetric top.
 Rotational symmetry number  1.
 Rotational temperatures (Kelvin)      1.03157     0.38480     0.28026
 Rotational constants (GHZ):          21.49438     8.01789     5.83959
 Zero-point vibrational energy      61413.2 (Joules/Mol)
                                   14.67812 (Kcal/Mol)
 Warning -- explicit consideration of   3 degrees of freedom as
           vibrations may cause significant error
 Vibrational temperatures:    509.58   548.65   748.22  1025.30  1202.53
          (Kelvin)           1397.29  2060.19  2255.45  5025.42

 Zero-point correction=                           0.023391 (Hartree/Particle)
 Thermal correction to Energy=                    0.027346
 Thermal correction to Enthalpy=                  0.028290
 Thermal correction to Gibbs Free Energy=        -0.002602
 Sum of electronic and zero-point Energies=           -280.431808
 Sum of electronic and thermal Energies=              -280.427853
 Sum of electronic and thermal Enthalpies=            -280.426909
 Sum of electronic and thermal Free Energies=         -280.457801

                     E (Thermal)             CV                S
                      KCal/Mol        Cal/Mol-Kelvin    Cal/Mol-Kelvin
 Total                   17.160             12.206             65.017
 Electronic               0.000              0.000              0.000
 Translational            0.889              2.981             38.341
 Rotational               0.889              2.981             23.284
 Vibrational             15.382              6.245              3.392
 Vibration     1          0.730              1.567              1.148
 Vibration     2          0.751              1.510              1.034
 Vibration     3          0.875              1.206              0.610

                       ! Non-Optimized Parameters !

 1\1\GINC-N2174\Freq\RMP2-FC\Aug-CC-pVTZ\H1N1O3\CGAVINH\06-Mar-2022\1\\
 #p freq mp2/aug-cc-pvtz density=current\\title\\0,1\H\O,1,r1\O,2,r2,1,
 a1\N,3,r3,2,a2,1,d1,0\O,4,r4,3,a3,2,d2,0\\r1=0.98537664\r2=1.42673666\
 r3=1.38110764\r4=1.19478846\a1=100.6355057\a2=113.89530869\a3=114.3339
 2022\d1=0.\d2=0.\\Version=ES64L-G16RevB.01\State=1-A'\HF=-279.5065365\
 MP2=-280.455199\RMSD=4.221e-09\RMSF=1.185e-03\ZeroPoint=0.0233911\Ther
 mal=0.0273457\Dipole=-0.1155575,0.,-0.418549\DipoleDeriv=0.3148715,0.,
 0.0407066,0.,0.2993284,0.,-0.0195152,0.,0.1942918,-0.5348914,0.,0.2798

 Normal termination of Gaussian 16 at Sun Mar  6 19:33:59 2022.
