 Gaussian 16, Revision B.01,
 Gaussian 16:  ES64L-G16RevB.01 20-Dec-2017

 ---------------------------------------
 #p freq mp2/aug-cc-pvtz density=current
 ---------------------------------------

 -----
 title
 -----
 Symbolic Z-matrix:
 Charge =  0 Multiplicity = 1

                         Standard orientation:
 ---------------------------------------------------------------------
 Center     Atomic      Atomic             Coordinates (Angstroms)
 Number     Number       Type             X           Y           Z
 ---------------------------------------------------------------------
      1          1           0        1.119766   -0.583908    0.000000
      2          8           0        1.319656    0.380981    0.000000
      3          8           0       -0.000000    0.923277   -0.000000
      4          7           0       -0.998381   -0.058607   -0.000000
      5          8           0       -0.586043   -1.179988    0.000000
 ---------------------------------------------------------------------

 SCF Done:  E(RHF) =  -279.504648329     A.U. after   14 cycles
 E2 =    -0.9504540662D+00 EUMP2 =    -0.28045510239482D+03
 E2 =    -0.9504540662D+00 EUMP2 =    -0.28045510239482D+03

 The electronic state is 1-A'.
 Alpha  occ. eigenvalues --  -20.71663 -20.69168 -20.66716 -15.82837  -1.63994
 Alpha  occ. eigenvalues --   -1.50491  -1.28694  -0.96147  -0.83258  -0.75672
 Alpha  occ. eigenvalues --   -0.73575  -0.63691  -0.62014  -0.61914  -0.50425
 Alpha  occ. eigenvalues --   -0.49561
 Alpha virt. eigenvalues --    0.03516   0.05746   0.09502   0.10033   0.11972
 Alpha virt. eigenvalues --    0.12217   0.14976   0.15253   0.17765   0.18002
 Alpha virt. eigenvalues --    0.18990   0.21083   0.21677   0.24194   0.24628

 Mulliken charges:
               1
     1  H    0.277642
     2  O   -0.271667
     3  O    0.022836
     4  N    0.160802
     5  O   -0.189613
 Sum of Mulliken charges =  -0.00000

 Dipole moment (field-independent basis, Debye):
    X=              0.0036    Y=             -1.1838    Z=             -0.0000  Tot=              1.1838
 Quadrupole moment (field-independent basis, Debye-Ang):
   XX=            -23.3122   YY=            -22.9823   ZZ=            -21.9644
   XY=             -1.9336   XZ=              0.0000   YZ=              0.0000

  Exact polarizability:  31.018   4.276  30.136   0.000  -0.000  17.684
 Approx polarizability:  24.723   0.614  27.965   0.000  -0.000  15.547

                      1                      2                      3
                     A"                     A'                     A"
 Frequencies --    344.4709               381.2510               519.1165
 Red. masses --      1.5096                 7.2238                 3.0913
 Frc consts  --      0.1055                 0.6186                 0.4908
 IR Inten    --     64.0529                 9.4355                23.9396

                      4                      5                      6
                     A'                     A'                     A'
 Frequencies --    644.7199               834.9553               966.2534
 Red. masses --     13.1562                12.1337                10.0638
 Frc consts  --      3.2220                 4.9839                 5.5360
 IR Inten    --    233.5094                28.4894                11.3807

                      7                      8                      9
                     A'                     A'                     A'
 Frequencies --   1434.9889              1560.6952              3489.6708
 Red. masses --      1.3189                 5.9596                 1.0640
 Frc consts  --      1.6001                 8.5528                 7.6342
 IR Inten    --     78.8630               150.0143                39.4743

 - Thermochemistry -
 -------------------
 Temperature   298.150 Kelvin.  Pressure   1.00000 Atm.
 Atom     1 has atomic number  1 and mass   1.00783

 Molecular mass:    62.99564 amu.
 Principal axes and moments of inertia in atomic units:
                           1         2         3
     Eigenvalues --    84.55772 226.70938 311.26710
           X            0.79045  -0.61253   0.00000
           Y            0.61253   0.79045   0.00000
           Z            0.00000  -0.00000   1.00000
 This molecule is an asymmetric top.
 Rotational symmetry number  1.
 Rotational temperatures (Kelvin)      1.02432     0.38205     0.27826
 Rotational constants (GHZ):          21.34331     7.96059     5.79805
 Zero-point vibrational energy      60866.7 (Joules/Mol)
                                   14.54750 (Kcal/Mol)
 Warning -- explicit consideration of   3 degrees of freedom as
           vibrations may cause significant error
 Vibrational temperatures:    495.62   548.54   746.89   927.61  1201.31
          (Kelvin)           1390.22  2064.63  2245.49  5020.86

 Zero-point correction=                           0.023183 (Hartree/Particle)
 Thermal correction to Energy=                    0.027179
 Thermal correction to Enthalpy=                  0.028124
 Thermal correction to Gibbs Free Energy=        -0.002843
 Sum of electronic and zero-point Energies=           -280.431919
 Sum of electronic and thermal Energies=              -280.427923
 Sum of electronic and thermal Enthalpies=            -280.426979
 Sum of electronic and thermal Free Energies=         -280.457945

                     E (Thermal)             CV                S
                      KCal/Mol        Cal/Mol-Kelvin    Cal/Mol-Kelvin
 Total                   17.055             12.369             65.174
 Electronic               0.000              0.000              0.000
 Translational            0.889              2.981             38.341
 Rotational               0.889              2.981             23.305
 Vibrational             15.278              6.408              3.529
 Vibration     1          0.723              1.587              1.191
 Vibration     2          0.751              1.510              1.034
 Vibration     3          0.874              1.208              0.612

                       ! Non-Optimized Parameters !

 1\1\GINC-N2219\Freq\RMP2-FC\Aug-CC-pVTZ\H1N1O3\CGAVINH\06-Mar-2022\1\\
 #p freq mp2/aug-cc-pvtz density=current\\title\\0,1\H\O,1,r1\O,2,r2,1,
 a1\N,3,r3,2,a2,1,d1,0\O,4,r4,3,a3,2,d2,0\\r1=0.98537664\r2=1.42673666\
 r3=1.4003073\r4=1.19478846\a1=100.6355057\a2=113.13777052\a3=114.33392
 022\d1=0.\d2=0.\\Version=ES64L-G16RevB.01\State=1-A'\HF=-279.5046483\M
 P2=-280.4551024\RMSD=4.868e-09\RMSF=2.426e-03\ZeroPoint=0.0231829\Ther
 mal=0.0271794\Dipole=-0.0958665,0.,-0.4557881\DipoleDeriv=0.3123699,0.
 ,0.0392481,0.,0.2978065,0.,-0.0221564,0.,0.1920035,-0.523012,0.,0.2793

 Normal termination of Gaussian 16 at Sun Mar  6 19:08:08 2022.
