 Gaussian 16, Revision B.01,
 Gaussian 16:  ES64L-G16RevB.01 20-Dec-2017

 ---------------------------------------
 #p freq mp2/aug-cc-pvtz density=current
 ---------------------------------------

 -----
 title
 -----
 Symbolic Z-matrix:
 Charge =  0 Multiplicity = 1

                         Standard orientation:
 ---------------------------------------------------------------------
 Center     Atomic      Atomic             Coordinates (Angstroms)
 Number     Number       Type             X           Y           Z
 ---------------------------------------------------------------------
      1          1           0        1.547757    1.674580   -0.000000
      2          8           0        1.454060    0.723411   -0.000000
      3          8           0        0.000000    0.673420    0.000000
      4          7           0       -0.261546   -0.761727   -0.000000
      5          8           0       -1.418677   -0.939642    0.000000
 ---------------------------------------------------------------------

 SCF Done:  E(RHF) =  -279.502152980     A.U. after   14 cycles
 E2 =    -0.9444174464D+00 EUMP2 =    -0.28044657042675D+03
 E2 =    -0.9444174464D+00 EUMP2 =    -0.28044657042675D+03

 The electronic state is 1-A'.
 Alpha  occ. eigenvalues --  -20.69124 -20.68455 -20.65894 -15.81311  -1.62434
 Alpha  occ. eigenvalues --   -1.49741  -1.25703  -0.94838  -0.77393  -0.76023
 Alpha  occ. eigenvalues --   -0.71211  -0.68137  -0.62085  -0.59006  -0.48568
 Alpha  occ. eigenvalues --   -0.47286
 Alpha virt. eigenvalues --    0.02987   0.07147   0.08589   0.10168   0.13386
 Alpha virt. eigenvalues --    0.13392   0.14460   0.15504   0.17806   0.19414
 Alpha virt. eigenvalues --    0.19976   0.20637   0.22077   0.23505   0.23726

 Mulliken charges:
               1
     1  H    0.238873
     2  O   -0.190233
     3  O   -0.148007
     4  N    0.292636
     5  O   -0.193269
 Sum of Mulliken charges =  -0.00000

 Dipole moment (field-independent basis, Debye):
    X=              0.5012    Y=              1.3439    Z=              0.0000  Tot=              1.4343
 Quadrupole moment (field-independent basis, Debye-Ang):
   XX=            -22.4631   YY=            -18.6668   ZZ=            -21.9936
   XY=              3.2298   XZ=              0.0000   YZ=             -0.0000

  Exact polarizability:  33.940   9.410  30.071  -0.000   0.000  17.895
 Approx polarizability:  28.972   5.088  23.385  -0.000   0.000  15.501

 ******    1 imaginary frequencies (negative Signs) ******

                      1                      2                      3
                     A"                     A"                     A'
 Frequencies --   -518.0329               228.2328               327.0738
 Red. masses --      1.1203                12.2540                 7.9964
 Frc consts  --      0.1771                 0.3761                 0.5040
 IR Inten    --    126.8633                 0.0989                 5.7059

                      4                      5                      6
                     A'                     A'                     A'
 Frequencies --    451.8762               779.9079               966.2960
 Red. masses --     12.3004                12.2141                15.6518
 Frc consts  --      1.4798                 4.3772                 8.6107
 IR Inten    --    198.8442               160.2473                26.0111

                      7                      8                      9
                     A'                     A'                     A'
 Frequencies --   1325.6874              1677.0615              3952.9960
 Red. masses --      1.1471                13.4879                 1.0675
 Frc consts  --      1.1878                22.3507                 9.8283
 IR Inten    --    155.4863               142.9137                84.1464

 - Thermochemistry -
 -------------------
 Temperature   298.150 Kelvin.  Pressure   1.00000 Atm.
 Atom     1 has atomic number  1 and mass   1.00783

 Molecular mass:    62.99564 amu.
 Principal axes and moments of inertia in atomic units:
                           1         2         3
     Eigenvalues --    32.80749 360.00331 392.81079
           X            0.81029  -0.58603   0.00000
           Y            0.58603   0.81029   0.00000
           Z           -0.00000   0.00000   1.00000
 This molecule is an asymmetric top.
 Rotational symmetry number  1.
 Rotational temperatures (Kelvin)      2.64007     0.24059     0.22050
 Rotational constants (GHZ):          55.01004     5.01312     4.59443
    1 imaginary frequencies ignored.
 Zero-point vibrational energy      58073.5 (Joules/Mol)
                                   13.87990 (Kcal/Mol)
 Warning -- explicit consideration of   3 degrees of freedom as
           vibrations may cause significant error
 Vibrational temperatures:    328.38   470.59   650.15  1122.11  1390.28
          (Kelvin)           1907.37  2412.92  5687.48

 Zero-point correction=                           0.022119 (Hartree/Particle)
 Thermal correction to Energy=                    0.026258
 Thermal correction to Enthalpy=                  0.027202
 Thermal correction to Gibbs Free Energy=        -0.004021
 Sum of electronic and zero-point Energies=           -280.424451
 Sum of electronic and thermal Energies=              -280.420313
 Sum of electronic and thermal Enthalpies=            -280.419368
 Sum of electronic and thermal Free Energies=         -280.450591

                     E (Thermal)             CV                S
                      KCal/Mol        Cal/Mol-Kelvin    Cal/Mol-Kelvin
 Total                   16.477             12.013             65.714
 Electronic               0.000              0.000              0.000
 Translational            0.889              2.981             38.341
 Rotational               0.889              2.981             23.055
 Vibrational             14.700              6.052              4.319
 Vibration     1          0.651              1.798              1.893
 Vibration     2          0.711              1.621              1.274
 Vibration     3          0.811              1.357              0.790

                       ! Non-Optimized Parameters !

 1\1\GINC-N2127\Freq\RMP2-FC\Aug-CC-pVTZ\H1N1O3\CGAVINH\21-Feb-2022\1\\
 #p freq mp2/aug-cc-pvtz density=current\\title\\0,1\H\O,1,r1\O,2,r2,1,
 a1\N,3,r3,2,a2,1,d1,0\O,4,r4,3,a3,2,d2,0\\r1=0.95577265\r2=1.45491931\
 r3=1.45878406\r4=1.17072885\a1=97.59494903\a2=102.29752444\a3=109.0695
 5123\d1=180.\d2=180.\\Version=ES64L-G16RevB.01\State=1-A'\HF=-279.5021
 53\MP2=-280.4465704\RMSD=3.788e-09\RMSF=4.890e-03\ZeroPoint=0.022119\T
 hermal=0.0262578\Dipole=-0.144407,0.,-0.5455011\DipoleDeriv=0.2647166,
 0.,0.0486477,0.,0.3574091,0.,0.0847379,0.,0.2773603,-0.3280927,0.,-0.2

 Normal termination of Gaussian 16 at Mon Feb 21 20:07:14 2022.
