 Gaussian 16, Revision B.01,
 Gaussian 16:  ES64L-G16RevB.01 20-Dec-2017

 ---------------------------------------
 #p freq mp2/aug-cc-pvtz density=current
 ---------------------------------------

 -----
 title
 -----
 Symbolic Z-matrix:
 Charge =  0 Multiplicity = 1

                         Standard orientation:
 ---------------------------------------------------------------------
 Center     Atomic      Atomic             Coordinates (Angstroms)
 Number     Number       Type             X           Y           Z
 ---------------------------------------------------------------------
      1          1           0        1.142960   -0.582940    0.000000
      2          8           0        1.327892    0.384928    0.000000
      3          8           0        0.000000    0.906733    0.000000
      4          7           0       -0.996786   -0.049236    0.000000
      5          8           0       -0.598574   -1.175711    0.000000
 ---------------------------------------------------------------------

 SCF Done:  E(RHF) =  -279.506537957     A.U. after   14 cycles
 E2 =    -0.9485136996D+00 EUMP2 =    -0.28045505165695D+03
 E2 =    -0.9485136996D+00 EUMP2 =    -0.28045505165695D+03

 The electronic state is 1-A'.
 Alpha  occ. eigenvalues --  -20.71784 -20.68633 -20.67039 -15.82608  -1.64211
 Alpha  occ. eigenvalues --   -1.50534  -1.29386  -0.96009  -0.83168  -0.75811
 Alpha  occ. eigenvalues --   -0.73874  -0.63989  -0.61894  -0.61692  -0.50366
 Alpha  occ. eigenvalues --   -0.49699
 Alpha virt. eigenvalues --    0.03474   0.06094   0.09518   0.10096   0.11974
 Alpha virt. eigenvalues --    0.12241   0.14848   0.15125   0.17767   0.18075
 Alpha virt. eigenvalues --    0.18998   0.21106   0.21667   0.24035   0.24655

 Mulliken charges:
               1
     1  H    0.281777
     2  O   -0.272041
     3  O    0.038331
     4  N    0.151109
     5  O   -0.199176
 Sum of Mulliken charges =  -0.00000

 Dipole moment (field-independent basis, Debye):
    X=              0.1024    Y=             -1.1089    Z=              0.0000  Tot=              1.1137
 Quadrupole moment (field-independent basis, Debye-Ang):
   XX=            -23.2464   YY=            -23.0522   ZZ=            -21.9387
   XY=             -2.0096   XZ=              0.0000   YZ=              0.0000

  Exact polarizability:  31.235   4.302  29.970   0.000   0.000  17.649
 Approx polarizability:  24.756   0.663  27.644  -0.000  -0.000  15.532

                      1                      2                      3
                     A"                     A'                     A"
 Frequencies --    354.2729               364.0957               516.2533
 Red. masses --      1.5439                 6.9901                 2.9736
 Frc consts  --      0.1142                 0.5460                 0.4669
 IR Inten    --     63.8684                 7.7098                25.8151

                      4                      5                      6
                     A'                     A'                     A'
 Frequencies --    713.9659               834.6966               971.2665
 Red. masses --     13.1934                12.1634                 9.5104
 Frc consts  --      3.9624                 4.9930                 5.2860
 IR Inten    --    222.2238                27.6777                13.0911

                      7                      8                      9
                     A'                     A'                     A'
 Frequencies --   1429.8726              1564.7263              3498.2907
 Red. masses --      1.2813                 7.4063                 1.0640
 Frc consts  --      1.5435                10.6839                 7.6721
 IR Inten    --     77.3475               154.0975                37.8044

 - Thermochemistry -
 -------------------
 Temperature   298.150 Kelvin.  Pressure   1.00000 Atm.
 Atom     1 has atomic number  1 and mass   1.00783

 Molecular mass:    62.99564 amu.
 Principal axes and moments of inertia in atomic units:
                           1         2         3
     Eigenvalues --    83.32122 227.87926 311.20048
           X            0.79852  -0.60197   0.00000
           Y            0.60197   0.79852   0.00000
           Z            0.00000   0.00000   1.00000
 This molecule is an asymmetric top.
 Rotational symmetry number  1.
 Rotational temperatures (Kelvin)      1.03952     0.38009     0.27832
 Rotational constants (GHZ):          21.66004     7.91973     5.79929
 Zero-point vibrational energy      61293.3 (Joules/Mol)
                                   14.64945 (Kcal/Mol)
 Warning -- explicit consideration of   3 degrees of freedom as
           vibrations may cause significant error
 Vibrational temperatures:    509.72   523.85   742.77  1027.24  1200.94
          (Kelvin)           1397.44  2057.27  2251.29  5033.26

 Zero-point correction=                           0.023345 (Hartree/Particle)
 Thermal correction to Energy=                    0.027320
 Thermal correction to Enthalpy=                  0.028265
 Thermal correction to Gibbs Free Energy=        -0.002670
 Sum of electronic and zero-point Energies=           -280.431706
 Sum of electronic and thermal Energies=              -280.427731
 Sum of electronic and thermal Enthalpies=            -280.426787
 Sum of electronic and thermal Free Energies=         -280.457721

                     E (Thermal)             CV                S
                      KCal/Mol        Cal/Mol-Kelvin    Cal/Mol-Kelvin
 Total                   17.144             12.251             65.107
 Electronic               0.000              0.000              0.000
 Translational            0.889              2.981             38.341
 Rotational               0.889              2.981             23.295
 Vibrational             15.366              6.290              3.471
 Vibration     1          0.730              1.566              1.147
 Vibration     2          0.738              1.546              1.105
 Vibration     3          0.871              1.214              0.619

                       ! Non-Optimized Parameters !

 1\1\GINC-N2110\Freq\RMP2-FC\Aug-CC-pVTZ\H1N1O3\CGAVINH\06-Mar-2022\1\\
 #p freq mp2/aug-cc-pvtz density=current\\title\\0,1\H\O,1,r1\O,2,r2,1,
 a1\N,3,r3,2,a2,1,d1,0\O,4,r4,3,a3,2,d2,0\\r1=0.98537664\r2=1.42673666\
 r3=1.38110764\r4=1.19478846\a1=100.6355057\a2=114.74475165\a3=114.3339
 2022\d1=0.\d2=0.\\Version=ES64L-G16RevB.01\State=1-A'\HF=-279.506538\M
 P2=-280.4550517\RMSD=3.945e-09\RMSF=2.571e-03\ZeroPoint=0.0233454\Ther
 mal=0.0273205\Dipole=-0.121464,0.,-0.4209764\DipoleDeriv=0.3125716,0.,
 0.0437115,0.,0.3007245,0.,-0.0141771,0.,0.1883252,-0.542552,0.,0.27805

 Normal termination of Gaussian 16 at Sun Mar  6 19:35:34 2022.
