 Gaussian 16, Revision B.01,
 Gaussian 16:  ES64L-G16RevB.01 20-Dec-2017

 ---------------------------------------
 #p freq mp2/aug-cc-pvtz density=current
 ---------------------------------------

 -----
 title
 -----
 Symbolic Z-matrix:
 Charge =  0 Multiplicity = 1

                         Standard orientation:
 ---------------------------------------------------------------------
 Center     Atomic      Atomic             Coordinates (Angstroms)
 Number     Number       Type             X           Y           Z
 ---------------------------------------------------------------------
      1          1           0        1.072361   -0.587710    0.000000
      2          8           0        1.316558    0.366929    0.000000
      3          8           0       -0.000000    0.916703    0.000000
      4          7           0       -0.990172   -0.046115    0.000000
      5          8           0       -0.584203   -1.169818    0.000000
 ---------------------------------------------------------------------

 SCF Done:  E(RHF) =  -279.505706709     A.U. after   14 cycles
 E2 =    -0.9493252221D+00 EUMP2 =    -0.28045503193131D+03
 E2 =    -0.9493252221D+00 EUMP2 =    -0.28045503193131D+03

 The electronic state is 1-A'.
 Alpha  occ. eigenvalues --  -20.71957 -20.68870 -20.66875 -15.82719  -1.64620
 Alpha  occ. eigenvalues --   -1.50650  -1.29393  -0.96033  -0.83677  -0.75985
 Alpha  occ. eigenvalues --   -0.74088  -0.63830  -0.61937  -0.61880  -0.50623
 Alpha  occ. eigenvalues --   -0.49775
 Alpha virt. eigenvalues --    0.03550   0.05925   0.09498   0.10027   0.11927
 Alpha virt. eigenvalues --    0.12261   0.14930   0.15324   0.17732   0.17958
 Alpha virt. eigenvalues --    0.18957   0.21076   0.21704   0.24217   0.24630

 Mulliken charges:
               1
     1  H    0.271128
     2  O   -0.275268
     3  O    0.038864
     4  N    0.157233
     5  O   -0.191957
 Sum of Mulliken charges =  -0.00000

 Dipole moment (field-independent basis, Debye):
    X=             -0.0049    Y=             -1.0738    Z=              0.0000  Tot=              1.0738
 Quadrupole moment (field-independent basis, Debye-Ang):
   XX=            -23.4654   YY=            -22.9513   ZZ=            -21.9243
   XY=             -1.8710   XZ=              0.0000   YZ=              0.0000

  Exact polarizability:  30.894   4.238  29.813   0.000   0.000  17.580
 Approx polarizability:  24.630   0.626  27.603  -0.000  -0.000  15.491

                      1                      2                      3
                     A"                     A'                     A"
 Frequencies --    376.5170               398.2845               520.6855
 Red. masses --      1.5445                 7.2693                 2.9286
 Frc consts  --      0.1290                 0.6794                 0.4678
 IR Inten    --     60.7891                 7.9585                24.3840

                      4                      5                      6
                     A'                     A'                     A'
 Frequencies --    713.3961               841.2363               974.6236
 Red. masses --     13.4418                13.3491                 9.8139
 Frc consts  --      4.0306                 5.5659                 5.4924
 IR Inten    --    215.0852                32.0542                12.6546

                      7                      8                      9
                     A'                     A'                     A'
 Frequencies --   1458.9781              1578.5602              3473.3426
 Red. masses --      1.3944                 4.6134                 1.0635
 Frc consts  --      1.7488                 6.7732                 7.5595
 IR Inten    --     82.6276               150.2424                46.5000

 - Thermochemistry -
 -------------------
 Temperature   298.150 Kelvin.  Pressure   1.00000 Atm.
 Atom     1 has atomic number  1 and mass   1.00783

 Molecular mass:    62.99564 amu.
 Principal axes and moments of inertia in atomic units:
                           1         2         3
     Eigenvalues --    84.27299 222.51415 306.78714
           X            0.79480  -0.60687   0.00000
           Y            0.60687   0.79480   0.00000
           Z            0.00000   0.00000   1.00000
 This molecule is an asymmetric top.
 Rotational symmetry number  1.
 Rotational temperatures (Kelvin)      1.02778     0.38925     0.28233
 Rotational constants (GHZ):          21.41542     8.11068     5.88271
 Zero-point vibrational energy      61820.8 (Joules/Mol)
                                   14.77552 (Kcal/Mol)
 Warning -- explicit consideration of   3 degrees of freedom as
           vibrations may cause significant error
 Vibrational temperatures:    541.72   573.04   749.15  1026.42  1210.35
          (Kelvin)           1402.27  2099.14  2271.20  4997.37

 Zero-point correction=                           0.023546 (Hartree/Particle)
 Thermal correction to Energy=                    0.027457
 Thermal correction to Enthalpy=                  0.028401
 Thermal correction to Gibbs Free Energy=        -0.002403
 Sum of electronic and zero-point Energies=           -280.431486
 Sum of electronic and thermal Energies=              -280.427575
 Sum of electronic and thermal Enthalpies=            -280.426631
 Sum of electronic and thermal Free Energies=         -280.457435

                     E (Thermal)             CV                S
                      KCal/Mol        Cal/Mol-Kelvin    Cal/Mol-Kelvin
 Total                   17.229             12.098             64.832
 Electronic               0.000              0.000              0.000
 Translational            0.889              2.981             38.341
 Rotational               0.889              2.981             23.269
 Vibrational             15.452              6.136              3.223
 Vibration     1          0.747              1.520              1.053
 Vibration     2          0.765              1.474              0.969
 Vibration     3          0.876              1.204              0.608

                       ! Non-Optimized Parameters !

 1\1\GINC-N2110\Freq\RMP2-FC\Aug-CC-pVTZ\H1N1O3\CGAVINH\06-Mar-2022\1\\
 #p freq mp2/aug-cc-pvtz density=current\\title\\0,1\H\O,1,r1\O,2,r2,1,
 a1\N,3,r3,2,a2,1,d1,0\O,4,r4,3,a3,2,d2,0\\r1=0.98537664\r2=1.42673666\
 r3=1.38110764\r4=1.19478846\a1=98.31602063\a2=113.13777052\a3=114.3339
 2022\d1=0.\d2=0.\\Version=ES64L-G16RevB.01\State=1-A'\HF=-279.5057067\
 MP2=-280.4550319\RMSD=4.509e-09\RMSF=2.206e-03\ZeroPoint=0.0235463\The
 rmal=0.0274567\Dipole=-0.1028346,0.,-0.4097461\DipoleDeriv=0.3213073,0
 .,0.0285722,0.,0.292638,0.,-0.0441863,0.,0.2061472,-0.5246223,0.,0.303

 Normal termination of Gaussian 16 at Sun Mar  6 19:31:09 2022.
