 Gaussian 16, Revision B.01,
 Gaussian 16:  ES64L-G16RevB.01 20-Dec-2017

 ---------------------------------------
 #p freq mp2/aug-cc-pvtz density=current
 ---------------------------------------

 -----
 title
 -----
 Symbolic Z-matrix:
 Charge =  0 Multiplicity = 1

                         Standard orientation:
 ---------------------------------------------------------------------
 Center     Atomic      Atomic             Coordinates (Angstroms)
 Number     Number       Type             X           Y           Z
 ---------------------------------------------------------------------
      1          1           0        1.550562    1.700723    0.000000
      2          8           0        1.454066    0.722381    0.000000
      3          8           0       -0.000000    0.672570    0.000000
      4          7           0       -0.261725   -0.762544   -0.000000
      5          8           0       -1.418878   -0.940315   -0.000000
 ---------------------------------------------------------------------

 SCF Done:  E(RHF) =  -279.500835213     A.U. after   14 cycles
 E2 =    -0.9457229854D+00 EUMP2 =    -0.28044655819868D+03
 E2 =    -0.9457229854D+00 EUMP2 =    -0.28044655819868D+03

 The electronic state is 1-A'.
 Alpha  occ. eigenvalues --  -20.69051 -20.68403 -20.66106 -15.81254  -1.62371
 Alpha  occ. eigenvalues --   -1.49405  -1.25170  -0.94774  -0.77169  -0.75802
 Alpha  occ. eigenvalues --   -0.71146  -0.67718  -0.62004  -0.58875  -0.48475
 Alpha  occ. eigenvalues --   -0.47212
 Alpha virt. eigenvalues --    0.02935   0.07189   0.08601   0.10175   0.13396
 Alpha virt. eigenvalues --    0.13406   0.14345   0.15402   0.17845   0.19421
 Alpha virt. eigenvalues --    0.19985   0.20636   0.22086   0.23581   0.23751

 Mulliken charges:
               1
     1  H    0.261374
     2  O   -0.212729
     3  O   -0.146207
     4  N    0.290793
     5  O   -0.193231
 Sum of Mulliken charges =   0.00000

 Dipole moment (field-independent basis, Debye):
    X=              0.5156    Y=              1.3787    Z=              0.0000  Tot=              1.4720
 Quadrupole moment (field-independent basis, Debye-Ang):
   XX=            -22.4754   YY=            -18.5606   ZZ=            -22.0281
   XY=              3.2838   XZ=             -0.0000   YZ=             -0.0000

  Exact polarizability:  34.067   9.538  30.451   0.000   0.000  17.962
 Approx polarizability:  29.046   5.124  23.670  -0.000   0.000  15.545

                      1                      2                      3
                     A"                     A"                     A'
 Frequencies --    223.1250               339.6263               351.8626
 Red. masses --     14.5786                 1.1072                 9.1269
 Frc consts  --      0.4276                 0.0752                 0.6658
 IR Inten    --      3.2530               120.7356                 3.6424

                      4                      5                      6
                     A'                     A'                     A'
 Frequencies --    451.4267               789.5166               967.9120
 Red. masses --     12.3309                13.4190                15.1098
 Frc consts  --      1.4805                 4.9283                 8.3403
 IR Inten    --    200.6074               179.2411                20.3661

                      7                      8                      9
                     A'                     A'                     A'
 Frequencies --   1412.4960              1677.6396              3599.4255
 Red. masses --      1.1259                12.8661                 1.0676
 Frc consts  --      1.3235                21.3350                 8.1493
 IR Inten    --    151.8829               137.6510                80.7507

 - Thermochemistry -
 -------------------
 Temperature   298.150 Kelvin.  Pressure   1.00000 Atm.
 Atom     1 has atomic number  1 and mass   1.00783

 Molecular mass:    62.99564 amu.
 Principal axes and moments of inertia in atomic units:
                           1         2         3
     Eigenvalues --    32.87615 360.30046 393.17661
           X            0.81001  -0.58642   0.00000
           Y            0.58642   0.81001   0.00000
           Z            0.00000  -0.00000   1.00000
 This molecule is an asymmetric top.
 Rotational symmetry number  1.
 Rotational temperatures (Kelvin)      2.63455     0.24039     0.22029
 Rotational constants (GHZ):          54.89515     5.00899     4.59015
 Zero-point vibrational energy      58695.0 (Joules/Mol)
                                   14.02843 (Kcal/Mol)
 Warning -- explicit consideration of   4 degrees of freedom as
           vibrations may cause significant error
 Vibrational temperatures:    321.03   488.65   506.25   649.50  1135.94
          (Kelvin)           1392.61  2032.27  2413.75  5178.77

 Zero-point correction=                           0.022356 (Hartree/Particle)
 Thermal correction to Energy=                    0.026841
 Thermal correction to Enthalpy=                  0.027785
 Thermal correction to Gibbs Free Energy=        -0.003973
 Sum of electronic and zero-point Energies=           -280.424202
 Sum of electronic and thermal Energies=              -280.419717
 Sum of electronic and thermal Enthalpies=            -280.418773
 Sum of electronic and thermal Free Energies=         -280.450531

                     E (Thermal)             CV                S
                      KCal/Mol        Cal/Mol-Kelvin    Cal/Mol-Kelvin
 Total                   16.843             13.516             66.841
 Electronic               0.000              0.000              0.000
 Translational            0.889              2.981             38.341
 Rotational               0.889              2.981             23.059
 Vibrational             15.066              7.554              5.442
 Vibration     1          0.649              1.806              1.934
 Vibration     2          0.720              1.596              1.214
 Vibration     3          0.728              1.571              1.158
 Vibration     4          0.810              1.358              0.791

                       ! Non-Optimized Parameters !

 1\1\GINC-N2126\Freq\RMP2-FC\Aug-CC-pVTZ\H1N1O3\CGAVINH\21-Feb-2022\1\\
 #p freq mp2/aug-cc-pvtz density=current\\title\\0,1\H\O,1,r1\O,2,r2,1,
 a1\N,3,r3,2,a2,1,d1,0\O,4,r4,3,a3,2,d2,0\\r1=0.98309006\r2=1.45491931\
 r3=1.45878406\r4=1.17072885\a1=97.59494903\a2=102.29752444\a3=109.0695
 5123\d1=180.\d2=180.\\Version=ES64L-G16RevB.01\State=1-A'\HF=-279.5008
 352\MP2=-280.4465582\RMSD=3.793e-09\RMSF=4.725e-03\ZeroPoint=0.0223557
 \Thermal=0.026841\Dipole=-0.1486428,0.,-0.5597225\DipoleDeriv=0.268058
 2,0.,0.0478637,0.,0.3536126,0.,0.0793733,0.,0.2735081,-0.3280198,0.,-0

 Normal termination of Gaussian 16 at Mon Feb 21 20:02:47 2022.
