 Gaussian 16, Revision B.01,
 Gaussian 16:  ES64L-G16RevB.01 20-Dec-2017

 ---------------------------------------
 #p freq mp2/aug-cc-pvtz density=current
 ---------------------------------------

 -----
 title
 -----
 Symbolic Z-matrix:
 Charge =  0 Multiplicity = 1

                         Standard orientation:
 ---------------------------------------------------------------------
 Center     Atomic      Atomic             Coordinates (Angstroms)
 Number     Number       Type             X           Y           Z
 ---------------------------------------------------------------------
      1          1           0        1.096879   -0.594723    0.000000
      2          8           0        1.316073    0.365964    0.000000
      3          8           0       -0.000000    0.916899    0.000000
      4          7           0       -0.991020   -0.045047    0.000000
      5          8           0       -0.586041   -1.169107    0.000000
 ---------------------------------------------------------------------

 SCF Done:  E(RHF) =  -279.506241485     A.U. after   14 cycles
 E2 =    -0.9489763999D+00 EUMP2 =    -0.28045521788469D+03
 E2 =    -0.9489763999D+00 EUMP2 =    -0.28045521788469D+03

 The electronic state is 1-A'.
 Alpha  occ. eigenvalues --  -20.71972 -20.68773 -20.66846 -15.82641  -1.64491
 Alpha  occ. eigenvalues --   -1.50560  -1.29383  -0.96034  -0.83539  -0.75922
 Alpha  occ. eigenvalues --   -0.74027  -0.63765  -0.61882  -0.61871  -0.50521
 Alpha  occ. eigenvalues --   -0.49759
 Alpha virt. eigenvalues --    0.03521   0.05992   0.09507   0.10035   0.11957
 Alpha virt. eigenvalues --    0.12261   0.14933   0.15244   0.17746   0.18009
 Alpha virt. eigenvalues --    0.18971   0.21092   0.21682   0.24243   0.24633

 Mulliken charges:
               1
     1  H    0.275753
     2  O   -0.274505
     3  O    0.038215
     4  N    0.155077
     5  O   -0.194540
 Sum of Mulliken charges =  -0.00000

 Dipole moment (field-independent basis, Debye):
    X=              0.0329    Y=             -1.0873    Z=              0.0000  Tot=              1.0878
 Quadrupole moment (field-independent basis, Debye-Ang):
   XX=            -23.4083   YY=            -22.9451   ZZ=            -21.9304
   XY=             -1.9398   XZ=              0.0000   YZ=              0.0000

  Exact polarizability:  30.912   4.174  29.842   0.000   0.000  17.606
 Approx polarizability:  24.584   0.555  27.641  -0.000  -0.000  15.507

                      1                      2                      3
                     A"                     A'                     A"
 Frequencies --    362.3774               397.5439               522.7679
 Red. masses --      1.5573                 7.1270                 2.9002
 Frc consts  --      0.1205                 0.6636                 0.4670
 IR Inten    --     61.9400                 7.8406                25.3144

                      4                      5                      6
                     A'                     A'                     A'
 Frequencies --    712.1332               838.4323               972.1590
 Red. masses --     13.3760                12.7076                 9.7745
 Frc consts  --      3.9967                 5.2632                 5.4428
 IR Inten    --    216.5715                31.1443                12.7321

                      7                      8                      9
                     A'                     A'                     A'
 Frequencies --   1442.3153              1572.7619              3482.9765
 Red. masses --      1.3274                 5.7906                 1.0637
 Frc consts  --      1.6269                 8.4392                 7.6025
 IR Inten    --     80.7186               150.4418                43.8197

 - Thermochemistry -
 -------------------
 Temperature   298.150 Kelvin.  Pressure   1.00000 Atm.
 Atom     1 has atomic number  1 and mass   1.00783

 Molecular mass:    62.99564 amu.
 Principal axes and moments of inertia in atomic units:
                           1         2         3
     Eigenvalues --    84.44320 222.57596 307.01916
           X            0.79581  -0.60555   0.00000
           Y            0.60555   0.79581   0.00000
           Z            0.00000   0.00000   1.00000
 This molecule is an asymmetric top.
 Rotational symmetry number  1.
 Rotational temperatures (Kelvin)      1.02571     0.38914     0.28211
 Rotational constants (GHZ):          21.37225     8.10843     5.87827
 Zero-point vibrational energy      61628.4 (Joules/Mol)
                                   14.72955 (Kcal/Mol)
 Warning -- explicit consideration of   3 degrees of freedom as
           vibrations may cause significant error
 Vibrational temperatures:    521.38   571.98   752.15  1024.60  1206.32
          (Kelvin)           1398.72  2075.17  2262.85  5011.23

 Zero-point correction=                           0.023473 (Hartree/Particle)
 Thermal correction to Energy=                    0.027400
 Thermal correction to Enthalpy=                  0.028344
 Thermal correction to Gibbs Free Energy=        -0.002491
 Sum of electronic and zero-point Energies=           -280.431745
 Sum of electronic and thermal Energies=              -280.427818
 Sum of electronic and thermal Enthalpies=            -280.426874
 Sum of electronic and thermal Free Energies=         -280.457709

                     E (Thermal)             CV                S
                      KCal/Mol        Cal/Mol-Kelvin    Cal/Mol-Kelvin
 Total                   17.194             12.140             64.898
 Electronic               0.000              0.000              0.000
 Translational            0.889              2.981             38.341
 Rotational               0.889              2.981             23.272
 Vibrational             15.416              6.179              3.286
 Vibration     1          0.736              1.550              1.112
 Vibration     2          0.764              1.475              0.972
 Vibration     3          0.878              1.200              0.604

                       ! Non-Optimized Parameters !

 1\1\GINC-N2398\Freq\RMP2-FC\Aug-CC-pVTZ\H1N1O3\CGAVINH\06-Mar-2022\1\\
 #p freq mp2/aug-cc-pvtz density=current\\title\\0,1\H\O,1,r1\O,2,r2,1,
 a1\N,3,r3,2,a2,1,d1,0\O,4,r4,3,a3,2,d2,0\\r1=0.98537664\r2=1.42673666\
 r3=1.38110764\r4=1.19478846\a1=99.86234401\a2=113.13777052\a3=114.3339
 2022\d1=0.\d2=0.\\Version=ES64L-G16RevB.01\State=1-A'\HF=-279.5062415\
 MP2=-280.4552179\RMSD=4.453e-09\RMSF=7.339e-04\ZeroPoint=0.023473\Ther
 mal=0.0273997\Dipole=-0.1077979,0.,-0.4141842\DipoleDeriv=0.3185414,0.
 ,0.034861,0.,0.2962545,0.,-0.0311132,0.,0.2017445,-0.5271571,0.,0.2887

 Normal termination of Gaussian 16 at Sun Mar  6 19:27:41 2022.
