 Gaussian 16, Revision B.01,
 Gaussian 16:  ES64L-G16RevB.01 20-Dec-2017

 ---------------------------------------
 #p freq mp2/aug-cc-pvtz density=current
 ---------------------------------------

 -----
 title
 -----
 Symbolic Z-matrix:
 Charge =  0 Multiplicity = 1

                         Standard orientation:
 ---------------------------------------------------------------------
 Center     Atomic      Atomic             Coordinates (Angstroms)
 Number     Number       Type             X           Y           Z
 ---------------------------------------------------------------------
      1          1           0        1.111055   -0.589201    0.000000
      2          8           0        1.315793    0.365098    0.000000
      3          8           0        0.000000    0.916702    0.000000
      4          7           0       -0.991509   -0.044738    0.000000
      5          8           0       -0.587104   -1.169004    0.000000
 ---------------------------------------------------------------------

 SCF Done:  E(RHF) =  -279.506919451     A.U. after   14 cycles
 E2 =    -0.9482503903D+00 EUMP2 =    -0.28045516984091D+03
 E2 =    -0.9482503903D+00 EUMP2 =    -0.28045516984091D+03

 The electronic state is 1-A'.
 Alpha  occ. eigenvalues --  -20.71994 -20.68716 -20.66796 -15.82603  -1.64446
 Alpha  occ. eigenvalues --   -1.50596  -1.29550  -0.96093  -0.83514  -0.75904
 Alpha  occ. eigenvalues --   -0.74013  -0.63948  -0.61902  -0.61859  -0.50461
 Alpha  occ. eigenvalues --   -0.49791
 Alpha virt. eigenvalues --    0.03514   0.06030   0.09506   0.10041   0.11965
 Alpha virt. eigenvalues --    0.12258   0.14949   0.15211   0.17737   0.18030
 Alpha virt. eigenvalues --    0.18975   0.21113   0.21680   0.24222   0.24633

 Mulliken charges:
               1
     1  H    0.272225
     2  O   -0.267756
     3  O    0.037875
     4  N    0.153519
     5  O   -0.195864
 Sum of Mulliken charges =  -0.00000

 Dipole moment (field-independent basis, Debye):
    X=              0.0546    Y=             -1.0855    Z=              0.0000  Tot=              1.0868
 Quadrupole moment (field-independent basis, Debye-Ang):
   XX=            -23.3651   YY=            -22.9553   ZZ=            -21.9217
   XY=             -1.9657   XZ=              0.0000   YZ=              0.0000

  Exact polarizability:  30.864   4.143  29.791   0.000   0.000  17.597
 Approx polarizability:  24.513   0.503  27.580  -0.000  -0.000  15.501

                      1                      2                      3
                     A"                     A'                     A"
 Frequencies --    150.2798               394.3813               504.3978
 Red. masses --      1.2392                 6.9451                 5.5752
 Frc consts  --      0.0165                 0.6364                 0.8357
 IR Inten    --     79.6889                 7.9220                 9.5279

                      4                      5                      6
                     A'                     A'                     A'
 Frequencies --    710.4524               837.4117               967.2824
 Red. masses --     13.0927                12.5158                 9.1245
 Frc consts  --      3.8936                 5.1711                 5.0300
 IR Inten    --    218.3306                30.8133                14.3502

                      7                      8                      9
                     A'                     A'                     A'
 Frequencies --   1416.7357              1567.9125              3607.7974
 Red. masses --      1.2849                 7.4583                 1.0641
 Frc consts  --      1.5195                10.8027                 8.1603
 IR Inten    --     77.5378               148.6209                41.6166

 - Thermochemistry -
 -------------------
 Temperature   298.150 Kelvin.  Pressure   1.00000 Atm.
 Atom     1 has atomic number  1 and mass   1.00783

 Molecular mass:    62.99564 amu.
 Principal axes and moments of inertia in atomic units:
                           1         2         3
     Eigenvalues --    84.47688 222.63574 307.11261
           X            0.79643  -0.60472   0.00000
           Y            0.60472   0.79643   0.00000
           Z            0.00000   0.00000   1.00000
 This molecule is an asymmetric top.
 Rotational symmetry number  1.
 Rotational temperatures (Kelvin)      1.02530     0.38904     0.28203
 Rotational constants (GHZ):          21.36373     8.10625     5.87648
 Zero-point vibrational energy      60750.3 (Joules/Mol)
                                   14.51966 (Kcal/Mol)
 Warning -- explicit consideration of   3 degrees of freedom as
           vibrations may cause significant error
 Vibrational temperatures:    216.22   567.43   725.72  1022.18  1204.85
          (Kelvin)           1391.70  2038.37  2255.88  5190.82

 Zero-point correction=                           0.023139 (Hartree/Particle)
 Thermal correction to Energy=                    0.027379
 Thermal correction to Enthalpy=                  0.028323
 Thermal correction to Gibbs Free Energy=        -0.003282
 Sum of electronic and zero-point Energies=           -280.432031
 Sum of electronic and thermal Energies=              -280.427791
 Sum of electronic and thermal Enthalpies=            -280.426847
 Sum of electronic and thermal Free Energies=         -280.458451

                     E (Thermal)             CV                S
                      KCal/Mol        Cal/Mol-Kelvin    Cal/Mol-Kelvin
 Total                   17.181             12.560             66.518
 Electronic               0.000              0.000              0.000
 Translational            0.889              2.981             38.341
 Rotational               0.889              2.981             23.273
 Vibrational             15.403              6.599              4.905
 Vibration     1          0.618              1.902              2.669
 Vibration     2          0.761              1.482              0.984
 Vibration     3          0.860              1.240              0.647

                       ! Non-Optimized Parameters !

 1\1\GINC-N2199\Freq\RMP2-FC\Aug-CC-pVTZ\H1N1O3\CGAVINH\06-Mar-2022\1\\
 #p freq mp2/aug-cc-pvtz density=current\\title\\0,1\H\O,1,r1\O,2,r2,1,
 a1\N,3,r3,2,a2,1,d1,0\O,4,r4,3,a3,2,d2,0\\r1=0.97601401\r2=1.42673666\
 r3=1.38110764\r4=1.19478846\a1=100.6355057\a2=113.13777052\a3=114.3339
 2022\d1=0.\d2=0.\\Version=ES64L-G16RevB.01\State=1-A'\HF=-279.5069195\
 MP2=-280.4551698\RMSD=4.292e-09\RMSF=2.898e-03\ZeroPoint=0.0231386\The
 rmal=0.0273789\Dipole=-0.1105683,0.,-0.4130513\DipoleDeriv=0.3133147,0
 .,0.0392011,0.,0.2995278,0.,-0.0198039,0.,0.1977421,-0.5274792,0.,0.28

 Normal termination of Gaussian 16 at Sun Mar  6 18:54:53 2022.
