 Gaussian 16, Revision B.01,
 Gaussian 16:  ES64L-G16RevB.01 20-Dec-2017

 ---------------------------------------
 #p freq mp2/aug-cc-pvtz density=current
 ---------------------------------------

 -----
 title
 -----
 Symbolic Z-matrix:
 Charge =  0 Multiplicity = 1

                         Standard orientation:
 ---------------------------------------------------------------------
 Center     Atomic      Atomic             Coordinates (Angstroms)
 Number     Number       Type             X           Y           Z
 ---------------------------------------------------------------------
      1          1           0       -2.247496    0.433155    0.061248
      2          8           0       -1.598917   -0.283659   -0.005359
      3          8           0       -0.400327    0.541065   -0.007211
      4          7           0        0.663567   -0.456973    0.002869
      5          8           0        1.699560    0.088301    0.002404
 ---------------------------------------------------------------------

 SCF Done:  E(RHF) =  -279.501704627     A.U. after   14 cycles
 E2 =    -0.9450528587D+00 EUMP2 =    -0.28044675748543D+03
 E2 =    -0.9450528587D+00 EUMP2 =    -0.28044675748543D+03

 The electronic state is 1-A.
 Alpha  occ. eigenvalues --  -20.69091 -20.68429 -20.66000 -15.81282  -1.62403
 Alpha  occ. eigenvalues --   -1.49576  -1.25441  -0.94807  -0.77274  -0.75922
 Alpha  occ. eigenvalues --   -0.71195  -0.67929  -0.62038  -0.58935  -0.48548
 Alpha  occ. eigenvalues --   -0.47238
 Alpha virt. eigenvalues --    0.02962   0.07167   0.08594   0.10172   0.13344
 Alpha virt. eigenvalues --    0.13440   0.14405   0.15452   0.17824   0.19417
 Alpha virt. eigenvalues --    0.19972   0.20640   0.22081   0.23541   0.23736

 Mulliken charges:
               1
     1  H    0.250224
     2  O   -0.201592
     3  O   -0.147143
     4  N    0.291780
     5  O   -0.193269
 Sum of Mulliken charges =  -0.00000

 Dipole moment (field-independent basis, Debye):
    X=             -1.2158    Y=              0.7885    Z=              0.1163  Tot=              1.4537
 Quadrupole moment (field-independent basis, Debye-Ang):
   XX=            -18.0055   YY=            -23.0973   ZZ=            -21.9996
   XY=             -2.7840   XZ=             -0.3074   YZ=              0.0950

  Exact polarizability:  41.727  -0.972  22.519  -0.060   0.012  17.933
 Approx polarizability:  31.945   1.135  20.576  -0.053   0.044  15.529

 ******    1 imaginary frequencies (negative Signs) ******

                      1                      2                      3
                      A                      A                      A
 Frequencies --   -267.6911               228.8807               341.6036
 Red. masses --      1.1393                10.5354                 8.6186
 Frc consts  --      0.0481                 0.3252                 0.5926
 IR Inten    --    124.8657                 0.7886                 4.6510

                      4                      5                      6
                      A                      A                      A
 Frequencies --    451.8503               785.4975               967.1003
 Red. masses --     12.2917                12.9236                15.3851
 Frc consts  --      1.4786                 4.6981                 8.4780
 IR Inten    --    199.2106               170.5756                22.8585

                      7                      8                      9
                      A                      A                      A
 Frequencies --   1371.3346              1677.3222              3778.6126
 Red. masses --      1.1331                13.2169                 1.0676
 Frc consts  --      1.2555                21.9085                 8.9806
 IR Inten    --    152.5870               140.5657                82.4038

 - Thermochemistry -
 -------------------
 Temperature   298.150 Kelvin.  Pressure   1.00000 Atm.
 Atom     1 has atomic number  1 and mass   1.00783

 Molecular mass:    62.99564 amu.
 Principal axes and moments of inertia in atomic units:
                           1         2         3
     Eigenvalues --    32.85063 360.13950 392.95482
           X            0.99994  -0.01067  -0.00140
           Y            0.01067   0.99994   0.00306
           Z            0.00137  -0.00307   0.99999
 This molecule is an asymmetric top.
 Rotational symmetry number  1.
 Rotational temperatures (Kelvin)      2.63660     0.24050     0.22042
 Rotational constants (GHZ):          54.93780     5.01123     4.59274
    1 imaginary frequencies ignored.
 Zero-point vibrational energy      57433.9 (Joules/Mol)
                                   13.72704 (Kcal/Mol)
 Warning -- explicit consideration of   3 degrees of freedom as
           vibrations may cause significant error
 Vibrational temperatures:    329.31   491.49   650.11  1130.16  1391.44
          (Kelvin)           1973.04  2413.29  5436.58

 Zero-point correction=                           0.021875 (Hartree/Particle)
 Thermal correction to Energy=                    0.025993
 Thermal correction to Enthalpy=                  0.026937
 Thermal correction to Gibbs Free Energy=        -0.004247
 Sum of electronic and zero-point Energies=           -280.424882
 Sum of electronic and thermal Energies=              -280.420765
 Sum of electronic and thermal Enthalpies=            -280.419820
 Sum of electronic and thermal Free Energies=         -280.451004

                     E (Thermal)             CV                S
                      KCal/Mol        Cal/Mol-Kelvin    Cal/Mol-Kelvin
 Total                   16.311             11.954             65.632
 Electronic               0.000              0.000              0.000
 Translational            0.889              2.981             38.341
 Rotational               0.889              2.981             23.057
 Vibrational             14.533              5.992              4.235
 Vibration     1          0.652              1.797              1.888
 Vibration     2          0.721              1.592              1.205
 Vibration     3          0.811              1.357              0.790

                       ! Non-Optimized Parameters !

 1\1\GINC-N2108\Freq\RMP2-FC\Aug-CC-pVTZ\H1N1O3\CGAVINH\21-Feb-2022\1\\
 #p freq mp2/aug-cc-pvtz density=current\\title\\0,1\H\O,1,r1\O,2,r2,1,
 a1\N,3,r3,2,a2,1,d1,0\O,4,r4,3,a3,2,d2,0\\r1=0.96897556\r2=1.45491931\
 r3=1.45878406\r4=1.17072885\a1=97.59494903\a2=102.29752444\a3=109.0695
 5123\d1=175.61210998\d2=180.\\Version=ES64L-G16RevB.01\State=1-A\HF=-2
 79.5017046\MP2=-280.4467575\RMSD=5.847e-09\RMSF=2.478e-04\ZeroPoint=0.
 0218754\Thermal=0.025993\Dipole=-0.1464975,0.0089529,-0.5527941\Dipole
 Deriv=0.2662593,-0.0006642,0.0482444,-0.000776,0.3553532,-0.0007794,0.

 Normal termination of Gaussian 16 at Mon Feb 21 21:08:23 2022.
