 Gaussian 16, Revision B.01,
 Gaussian 16:  ES64L-G16RevB.01 20-Dec-2017

 ---------------------------------------
 #p freq mp2/aug-cc-pvtz density=current
 ---------------------------------------

 -----
 title
 -----
 Symbolic Z-matrix:
 Charge =  0 Multiplicity = 1

                         Standard orientation:
 ---------------------------------------------------------------------
 Center     Atomic      Atomic             Coordinates (Angstroms)
 Number     Number       Type             X           Y           Z
 ---------------------------------------------------------------------
      1          1           0        1.070378   -0.587113    0.000000
      2          8           0        1.316597    0.367006   -0.000000
      3          8           0       -0.000000    0.916686   -0.000000
      4          7           0       -0.990103   -0.046202    0.000000
      5          8           0       -0.584054   -1.169876    0.000000
 ---------------------------------------------------------------------

 SCF Done:  E(RHF) =  -279.505653763     A.U. after   14 cycles
 E2 =    -0.9493545989D+00 EUMP2 =    -0.28045500836150D+03
 E2 =    -0.9493545989D+00 EUMP2 =    -0.28045500836150D+03

 The electronic state is 1-A'.
 Alpha  occ. eigenvalues --  -20.71956 -20.68878 -20.66877 -15.82725  -1.64631
 Alpha  occ. eigenvalues --   -1.50657  -1.29393  -0.96033  -0.83688  -0.75991
 Alpha  occ. eigenvalues --   -0.74093  -0.63835  -0.61943  -0.61879  -0.50631
 Alpha  occ. eigenvalues --   -0.49776
 Alpha virt. eigenvalues --    0.03552   0.05919   0.09497   0.10026   0.11924
 Alpha virt. eigenvalues --    0.12261   0.14929   0.15330   0.17731   0.17954
 Alpha virt. eigenvalues --    0.18956   0.21075   0.21706   0.24215   0.24629

 Mulliken charges:
               1
     1  H    0.270739
     2  O   -0.275339
     3  O    0.038917
     4  N    0.157411
     5  O   -0.191729
 Sum of Mulliken charges =  -0.00000

 Dipole moment (field-independent basis, Debye):
    X=             -0.0079    Y=             -1.0726    Z=              0.0000  Tot=              1.0727
 Quadrupole moment (field-independent basis, Debye-Ang):
   XX=            -23.4699   YY=            -22.9518   ZZ=            -21.9238
   XY=             -1.8654   XZ=             -0.0000   YZ=              0.0000

  Exact polarizability:  30.893   4.243  29.811   0.000   0.000  17.578
 Approx polarizability:  24.634   0.632  27.600  -0.000  -0.000  15.490

                      1                      2                      3
                     A"                     A'                     A"
 Frequencies --    377.4854               398.3478               520.4781
 Red. masses --      1.5425                 7.2814                 2.9345
 Frc consts  --      0.1295                 0.6808                 0.4684
 IR Inten    --     60.7357                 7.9668                24.2700

                      4                      5                      6
                     A'                     A'                     A'
 Frequencies --    713.4894               841.4454               974.8307
 Red. masses --     13.4465                13.3995                 9.8181
 Frc consts  --      4.0331                 5.5897                 5.4971
 IR Inten    --    214.9530                32.1379                12.6460

                      7                      8                      9
                     A'                     A'                     A'
 Frequencies --   1460.3131              1579.1054              3472.5322
 Red. masses --      1.4017                 4.5229                 1.0635
 Frc consts  --      1.7611                 6.6450                 7.5559
 IR Inten    --     82.8157               150.1847                46.7475

 - Thermochemistry -
 -------------------
 Temperature   298.150 Kelvin.  Pressure   1.00000 Atm.
 Atom     1 has atomic number  1 and mass   1.00783

 Molecular mass:    62.99564 amu.
 Principal axes and moments of inertia in atomic units:
                           1         2         3
     Eigenvalues --    84.25915 222.50932 306.76846
           X            0.79472  -0.60697   0.00000
           Y            0.60697   0.79472   0.00000
           Z            0.00000  -0.00000   1.00000
 This molecule is an asymmetric top.
 Rotational symmetry number  1.
 Rotational temperatures (Kelvin)      1.02795     0.38926     0.28234
 Rotational constants (GHZ):          21.41893     8.11086     5.88307
 Zero-point vibrational energy      61835.1 (Joules/Mol)
                                   14.77895 (Kcal/Mol)
 Warning -- explicit consideration of   3 degrees of freedom as
           vibrations may cause significant error
 Vibrational temperatures:    543.12   573.13   748.85  1026.55  1210.65
          (Kelvin)           1402.56  2101.06  2271.98  4996.20

 Zero-point correction=                           0.023552 (Hartree/Particle)
 Thermal correction to Energy=                    0.027461
 Thermal correction to Enthalpy=                  0.028405
 Thermal correction to Gibbs Free Energy=        -0.002397
 Sum of electronic and zero-point Energies=           -280.431457
 Sum of electronic and thermal Energies=              -280.427547
 Sum of electronic and thermal Enthalpies=            -280.426603
 Sum of electronic and thermal Free Energies=         -280.457405

                     E (Thermal)             CV                S
                      KCal/Mol        Cal/Mol-Kelvin    Cal/Mol-Kelvin
 Total                   17.232             12.095             64.828
 Electronic               0.000              0.000              0.000
 Translational            0.889              2.981             38.341
 Rotational               0.889              2.981             23.268
 Vibrational             15.455              6.133              3.219
 Vibration     1          0.748              1.518              1.049
 Vibration     2          0.765              1.474              0.969
 Vibration     3          0.875              1.205              0.609

                       ! Non-Optimized Parameters !

 1\1\GINC-N2095\Freq\RMP2-FC\Aug-CC-pVTZ\H1N1O3\CGAVINH\06-Mar-2022\1\\
 #p freq mp2/aug-cc-pvtz density=current\\title\\0,1\H\O,1,r1\O,2,r2,1,
 a1\N,3,r3,2,a2,1,d1,0\O,4,r4,3,a3,2,d2,0\\r1=0.98537664\r2=1.42673666\
 r3=1.38110764\r4=1.19478846\a1=98.19055376\a2=113.13777052\a3=114.3339
 2022\d1=0.\d2=0.\\Version=ES64L-G16RevB.01\State=1-A'\HF=-279.5056538\
 MP2=-280.4550084\RMSD=4.514e-09\RMSF=2.328e-03\ZeroPoint=0.0235518\The
 rmal=0.0274611\Dipole=-0.1024209,0.,-0.4094059\DipoleDeriv=0.3215022,0
 .,0.0280486,0.,0.2923451,0.,-0.0452299,0.,0.2065455,-0.524397,0.,0.304

 Normal termination of Gaussian 16 at Sun Mar  6 19:31:07 2022.
