 Gaussian 16, Revision B.01,
 Gaussian 16:  ES64L-G16RevB.01 20-Dec-2017

 ---------------------------------------
 #p freq mp2/aug-cc-pvtz density=current
 ---------------------------------------

 -----
 title
 -----
 Symbolic Z-matrix:
 Charge =  0 Multiplicity = 1

                         Standard orientation:
 ---------------------------------------------------------------------
 Center     Atomic      Atomic             Coordinates (Angstroms)
 Number     Number       Type             X           Y           Z
 ---------------------------------------------------------------------
      1          1           0        1.130596   -0.603288    0.000000
      2          8           0        1.315405    0.364603    0.000000
      3          8           0       -0.000000    0.917131    0.000000
      4          7           0       -0.992184   -0.043612    0.000000
      5          8           0       -0.588568   -1.168163    0.000000
 ---------------------------------------------------------------------

 SCF Done:  E(RHF) =  -279.506631916     A.U. after   14 cycles
 E2 =    -0.9485398127D+00 EUMP2 =    -0.28045517172883D+03
 E2 =    -0.9485398127D+00 EUMP2 =    -0.28045517172883D+03

 The electronic state is 1-A'.
 Alpha  occ. eigenvalues --  -20.71998 -20.68647 -20.66794 -15.82537  -1.64326
 Alpha  occ. eigenvalues --   -1.50440  -1.29367  -0.96039  -0.83355  -0.75843
 Alpha  occ. eigenvalues --   -0.73948  -0.63697  -0.61847  -0.61781  -0.50385
 Alpha  occ. eigenvalues --   -0.49737
 Alpha virt. eigenvalues --    0.03482   0.06081   0.09519   0.10042   0.11997
 Alpha virt. eigenvalues --    0.12260   0.14927   0.15139   0.17765   0.18076
 Alpha virt. eigenvalues --    0.18990   0.21118   0.21651   0.24269   0.24638

 Mulliken charges:
               1
     1  H    0.281375
     2  O   -0.273774
     3  O    0.037369
     4  N    0.152425
     5  O   -0.197395
 Sum of Mulliken charges =  -0.00000

 Dipole moment (field-independent basis, Debye):
    X=              0.0842    Y=             -1.1054    Z=              0.0000  Tot=              1.1086
 Quadrupole moment (field-independent basis, Debye-Ang):
   XX=            -23.3255   YY=            -22.9371   ZZ=            -21.9385
   XY=             -2.0339   XZ=              0.0000   YZ=              0.0000

  Exact polarizability:  30.940   4.087  29.879   0.000   0.000  17.642
 Approx polarizability:  24.525   0.456  27.692  -0.000  -0.000  15.528

                      1                      2                      3
                     A"                     A'                     A"
 Frequencies --    335.9396               396.6234               524.2817
 Red. masses --      1.5467                 6.9543                 2.9611
 Frc consts  --      0.1028                 0.6446                 0.4796
 IR Inten    --     64.7297                 7.6371                25.4232

                      4                      5                      6
                     A'                     A'                     A'
 Frequencies --    710.0760               833.9663               969.0424
 Red. masses --     13.2640                11.8045                 9.7541
 Frc consts  --      3.9403                 4.8372                 5.3967
 IR Inten    --    218.1462                30.2860                12.7545

                      7                      8                      9
                     A'                     A'                     A'
 Frequencies --   1419.4554              1566.9314              3495.0468
 Red. masses --      1.2804                 7.4629                 1.0639
 Frc consts  --      1.5200                10.7959                 7.6573
 IR Inten    --     78.7697               149.7681                41.2793

 - Thermochemistry -
 -------------------
 Temperature   298.150 Kelvin.  Pressure   1.00000 Atm.
 Atom     1 has atomic number  1 and mass   1.00783

 Molecular mass:    62.99564 amu.
 Principal axes and moments of inertia in atomic units:
                           1         2         3
     Eigenvalues --    84.67394 222.66739 307.34132
           X            0.79721  -0.60370   0.00000
           Y            0.60370   0.79721   0.00000
           Z            0.00000   0.00000   1.00000
 This molecule is an asymmetric top.
 Rotational symmetry number  1.
 Rotational temperatures (Kelvin)      1.02291     0.38898     0.28182
 Rotational constants (GHZ):          21.31401     8.10510     5.87211
 Zero-point vibrational energy      61316.8 (Joules/Mol)
                                   14.65506 (Kcal/Mol)
 Warning -- explicit consideration of   3 degrees of freedom as
           vibrations may cause significant error
 Vibrational temperatures:    483.34   570.65   754.32  1021.64  1199.89
          (Kelvin)           1394.24  2042.28  2254.46  5028.59

 Zero-point correction=                           0.023354 (Hartree/Particle)
 Thermal correction to Energy=                    0.027313
 Thermal correction to Enthalpy=                  0.028257
 Thermal correction to Gibbs Free Energy=        -0.002640
 Sum of electronic and zero-point Energies=           -280.431817
 Sum of electronic and thermal Energies=              -280.427858
 Sum of electronic and thermal Enthalpies=            -280.426914
 Sum of electronic and thermal Free Energies=         -280.457812

                     E (Thermal)             CV                S
                      KCal/Mol        Cal/Mol-Kelvin    Cal/Mol-Kelvin
 Total                   17.139             12.216             65.030
 Electronic               0.000              0.000              0.000
 Translational            0.889              2.981             38.341
 Rotational               0.889              2.981             23.276
 Vibrational             15.362              6.254              3.414
 Vibration     1          0.717              1.604              1.231
 Vibration     2          0.763              1.477              0.975
 Vibration     3          0.879              1.196              0.600

                       ! Non-Optimized Parameters !

 1\1\GINC-N2199\Freq\RMP2-FC\Aug-CC-pVTZ\H1N1O3\CGAVINH\06-Mar-2022\1\\
 #p freq mp2/aug-cc-pvtz density=current\\title\\0,1\H\O,1,r1\O,2,r2,1,
 a1\N,3,r3,2,a2,1,d1,0\O,4,r4,3,a3,2,d2,0\\r1=0.98537664\r2=1.42673666\
 r3=1.38110764\r4=1.19478846\a1=101.97466103\a2=113.13777052\a3=114.333
 92022\d1=0.\d2=0.\\Version=ES64L-G16RevB.01\State=1-A'\HF=-279.5066319
 \MP2=-280.4551717\RMSD=4.374e-09\RMSF=1.296e-03\ZeroPoint=0.0233543\Th
 ermal=0.0273133\Dipole=-0.1141147,0.,-0.4209488\DipoleDeriv=0.3137149,
 0.,0.0428611,0.,0.3012094,0.,-0.0127736,0.,0.1972691,-0.5299164,0.,0.2

 Normal termination of Gaussian 16 at Sun Mar  6 19:25:31 2022.
