 Gaussian 16, Revision B.01,
 Gaussian 16:  ES64L-G16RevB.01 20-Dec-2017

 ---------------------------------------
 #p freq mp2/aug-cc-pvtz density=current
 ---------------------------------------

 -----
 title
 -----
 Symbolic Z-matrix:
 Charge =  0 Multiplicity = 1

                         Standard orientation:
 ---------------------------------------------------------------------
 Center     Atomic      Atomic             Coordinates (Angstroms)
 Number     Number       Type             X           Y           Z
 ---------------------------------------------------------------------
      1          1           0        1.584044    1.645599    0.000000
      2          8           0        1.454918    0.685266    0.000000
      3          8           0       -0.000000    0.686868    0.000000
      4          7           0       -0.264246   -0.747784   -0.000000
      5          8           0       -1.421709   -0.923522   -0.000000
 ---------------------------------------------------------------------

 SCF Done:  E(RHF) =  -279.501331376     A.U. after   14 cycles
 E2 =    -0.9452407225D+00 EUMP2 =    -0.28044657209823D+03
 E2 =    -0.9452407225D+00 EUMP2 =    -0.28044657209823D+03

 The electronic state is 1-A'.
 Alpha  occ. eigenvalues --  -20.69134 -20.68387 -20.65933 -15.81224  -1.62411
 Alpha  occ. eigenvalues --   -1.49630  -1.25345  -0.94848  -0.77433  -0.75837
 Alpha  occ. eigenvalues --   -0.71208  -0.67630  -0.61991  -0.59084  -0.48537
 Alpha  occ. eigenvalues --   -0.47290
 Alpha virt. eigenvalues --    0.02962   0.07191   0.08591   0.10120   0.13412
 Alpha virt. eigenvalues --    0.13417   0.14431   0.15512   0.17817   0.19393
 Alpha virt. eigenvalues --    0.19962   0.20638   0.22112   0.23554   0.23755

 Mulliken charges:
               1
     1  H    0.247423
     2  O   -0.197230
     3  O   -0.150268
     4  N    0.294996
     5  O   -0.194921
 Sum of Mulliken charges =  -0.00000

 Dipole moment (field-independent basis, Debye):
    X=              0.5556    Y=              1.3438    Z=              0.0000  Tot=              1.4541
 Quadrupole moment (field-independent basis, Debye-Ang):
   XX=            -22.2678   YY=            -18.8113   ZZ=            -22.0066
   XY=              3.3109   XZ=             -0.0000   YZ=             -0.0000

  Exact polarizability:  34.006   9.216  29.897   0.000   0.000  17.904
 Approx polarizability:  29.018   4.867  23.417   0.000   0.000  15.513

 ******    1 imaginary frequencies (negative Signs) ******

                      1                      2                      3
                     A"                     A"                     A'
 Frequencies --   -255.4414               224.1274               344.7089
 Red. masses --      1.1370                10.4318                 8.4944
 Frc consts  --      0.0437                 0.3087                 0.5947
 IR Inten    --    125.0009                 0.7480                15.2295

                      4                      5                      6
                     A'                     A'                     A'
 Frequencies --    468.8204               786.6783               966.5475
 Red. masses --     12.7198                13.1334                15.5346
 Frc consts  --      1.6472                 4.7888                 8.5506
 IR Inten    --    189.9098               168.5035                20.6991

                      7                      8                      9
                     A'                     A'                     A'
 Frequencies --   1370.6733              1678.3066              3778.6210
 Red. masses --      1.1306                13.1600                 1.0675
 Frc consts  --      1.2514                21.8398                 8.9799
 IR Inten    --    150.5952               141.2800                78.7883

 - Thermochemistry -
 -------------------
 Temperature   298.150 Kelvin.  Pressure   1.00000 Atm.
 Atom     1 has atomic number  1 and mass   1.00783

 Molecular mass:    62.99564 amu.
 Principal axes and moments of inertia in atomic units:
                           1         2         3
     Eigenvalues --    33.85266 354.93308 388.78574
           X            0.81809  -0.57509   0.00000
           Y            0.57509   0.81809   0.00000
           Z            0.00000  -0.00000   1.00000
 This molecule is an asymmetric top.
 Rotational symmetry number  1.
 Rotational temperatures (Kelvin)      2.55856     0.24403     0.22278
 Rotational constants (GHZ):          53.31166     5.08474     4.64199
    1 imaginary frequencies ignored.
 Zero-point vibrational energy      57531.3 (Joules/Mol)
                                   13.75031 (Kcal/Mol)
 Warning -- explicit consideration of   3 degrees of freedom as
           vibrations may cause significant error
 Vibrational temperatures:    322.47   495.96   674.53  1131.85  1390.65
          (Kelvin)           1972.09  2414.71  5436.59

 Zero-point correction=                           0.021913 (Hartree/Particle)
 Thermal correction to Energy=                    0.026019
 Thermal correction to Enthalpy=                  0.026963
 Thermal correction to Gibbs Free Energy=        -0.004210
 Sum of electronic and zero-point Energies=           -280.424660
 Sum of electronic and thermal Energies=              -280.420553
 Sum of electronic and thermal Enthalpies=            -280.419609
 Sum of electronic and thermal Free Energies=         -280.450782

                     E (Thermal)             CV                S
                      KCal/Mol        Cal/Mol-Kelvin    Cal/Mol-Kelvin
 Total                   16.327             11.916             65.610
 Electronic               0.000              0.000              0.000
 Translational            0.889              2.981             38.341
 Rotational               0.889              2.981             23.062
 Vibrational             14.550              5.954              4.208
 Vibration     1          0.649              1.804              1.925
 Vibration     2          0.723              1.586              1.190
 Vibration     3          0.826              1.319              0.741

                       ! Non-Optimized Parameters !

 1\1\GINC-N2127\Freq\RMP2-FC\Aug-CC-pVTZ\H1N1O3\CGAVINH\21-Feb-2022\1\\
 #p freq mp2/aug-cc-pvtz density=current\\title\\0,1\H\O,1,r1\O,2,r2,1,
 a1\N,3,r3,2,a2,1,d1,0\O,4,r4,3,a3,2,d2,0\\r1=0.96897556\r2=1.45491931\
 r3=1.45878406\r4=1.17072885\a1=97.59494903\a2=100.37313585\a3=109.0695
 5123\d1=180.\d2=180.\\Version=ES64L-G16RevB.01\State=1-A'\HF=-279.5013
 314\MP2=-280.4465721\RMSD=3.776e-09\RMSF=1.964e-03\ZeroPoint=0.0219125
 \Thermal=0.0260193\Dipole=-0.1461754,0.,-0.5531118\DipoleDeriv=0.26867
 77,0.,0.0506593,0.,0.3554419,0.,0.0772858,0.,0.270774,-0.3139546,0.,-0

 Normal termination of Gaussian 16 at Mon Feb 21 20:51:33 2022.
