 Gaussian 16, Revision B.01,
 Gaussian 16:  ES64L-G16RevB.01 20-Dec-2017

 ---------------------------------------
 #p freq mp2/aug-cc-pvtz density=current
 ---------------------------------------

 -----
 title
 -----
 Symbolic Z-matrix:
 Charge =  0 Multiplicity = 1

                         Standard orientation:
 ---------------------------------------------------------------------
 Center     Atomic      Atomic             Coordinates (Angstroms)
 Number     Number       Type             X           Y           Z
 ---------------------------------------------------------------------
      1          1           0        1.107338   -0.596222    0.000000
      2          8           0        1.315154    0.366992    0.000000
      3          8           0       -0.000000    0.920117    0.000000
      4          7           0       -0.992620   -0.040176    0.000000
      5          8           0       -0.585028   -1.177427    0.000000
 ---------------------------------------------------------------------

 SCF Done:  E(RHF) =  -279.503923858     A.U. after   14 cycles
 E2 =    -0.9511033139D+00 EUMP2 =    -0.28045502717153D+03
 E2 =    -0.9511033139D+00 EUMP2 =    -0.28045502717153D+03

 The electronic state is 1-A'.
 Alpha  occ. eigenvalues --  -20.72282 -20.68658 -20.66945 -15.82817  -1.63730
 Alpha  occ. eigenvalues --   -1.50175  -1.29508  -0.96236  -0.83195  -0.75618
 Alpha  occ. eigenvalues --   -0.73810  -0.63727  -0.61845  -0.61528  -0.50706
 Alpha  occ. eigenvalues --   -0.49834
 Alpha virt. eigenvalues --    0.03515   0.05615   0.09501   0.10030   0.12002
 Alpha virt. eigenvalues --    0.12247   0.14932   0.15201   0.17714   0.18044
 Alpha virt. eigenvalues --    0.18976   0.21101   0.21664   0.24127   0.24611

 Mulliken charges:
               1
     1  H    0.278992
     2  O   -0.273261
     3  O    0.040789
     4  N    0.154312
     5  O   -0.200832
 Sum of Mulliken charges =  -0.00000

 Dipole moment (field-independent basis, Debye):
    X=              0.0827    Y=             -1.0361    Z=              0.0000  Tot=              1.0394
 Quadrupole moment (field-independent basis, Debye-Ang):
   XX=            -23.4033   YY=            -22.9584   ZZ=            -21.9599
   XY=             -2.0034   XZ=              0.0000   YZ=              0.0000

  Exact polarizability:  31.027   4.228  30.148   0.000   0.000  17.657
 Approx polarizability:  24.647   0.493  28.013  -0.000  -0.000  15.576

                      1                      2                      3
                     A"                     A'                     A"
 Frequencies --    360.5275               398.3498               535.2527
 Red. masses --      1.5058                 7.0117                 3.1014
 Frc consts  --      0.1153                 0.6555                 0.5235
 IR Inten    --     65.2150                 8.2967                23.1799

                      4                      5                      6
                     A'                     A'                     A'
 Frequencies --    716.8644               836.7506               967.6560
 Red. masses --     13.0607                12.4841                 9.9084
 Frc consts  --      3.9545                 5.1499                 5.4663
 IR Inten    --    210.8354                36.4494                13.8404

                      7                      8                      9
                     A'                     A'                     A'
 Frequencies --   1421.0004              1508.5606              3485.8541
 Red. masses --      1.6479                 3.1746                 1.0638
 Frc consts  --      1.9605                 4.2566                 7.6159
 IR Inten    --     78.5157               137.3813                43.0170

 - Thermochemistry -
 -------------------
 Temperature   298.150 Kelvin.  Pressure   1.00000 Atm.
 Atom     1 has atomic number  1 and mass   1.00783

 Molecular mass:    62.99564 amu.
 Principal axes and moments of inertia in atomic units:
                           1         2         3
     Eigenvalues --    85.38836 223.14682 308.53519
           X            0.79273  -0.60958   0.00000
           Y            0.60958   0.79273   0.00000
           Z            0.00000   0.00000   1.00000
 This molecule is an asymmetric top.
 Rotational symmetry number  1.
 Rotational temperatures (Kelvin)      1.01435     0.38815     0.28073
 Rotational constants (GHZ):          21.13568     8.08768     5.84939
 Zero-point vibrational energy      61193.9 (Joules/Mol)
                                   14.62569 (Kcal/Mol)
 Warning -- explicit consideration of   3 degrees of freedom as
           vibrations may cause significant error
 Vibrational temperatures:    518.72   573.14   770.11  1031.41  1203.90
          (Kelvin)           1392.24  2044.50  2170.48  5015.37

 Zero-point correction=                           0.023308 (Hartree/Particle)
 Thermal correction to Energy=                    0.027228
 Thermal correction to Enthalpy=                  0.028172
 Thermal correction to Gibbs Free Energy=        -0.002662
 Sum of electronic and zero-point Energies=           -280.431720
 Sum of electronic and thermal Energies=              -280.427799
 Sum of electronic and thermal Enthalpies=            -280.426855
 Sum of electronic and thermal Free Energies=         -280.457689

                     E (Thermal)             CV                S
                      KCal/Mol        Cal/Mol-Kelvin    Cal/Mol-Kelvin
 Total                   17.086             12.135             64.895
 Electronic               0.000              0.000              0.000
 Translational            0.889              2.981             38.341
 Rotational               0.889              2.981             23.290
 Vibrational             15.308              6.174              3.265
 Vibration     1          0.735              1.554              1.120
 Vibration     2          0.765              1.474              0.969
 Vibration     3          0.890              1.172              0.576

                       ! Non-Optimized Parameters !

 1\1\GINC-N2095\Freq\RMP2-FC\Aug-CC-pVTZ\H1N1O3\CGAVINH\06-Mar-2022\1\\
 #p freq mp2/aug-cc-pvtz density=current\\title\\0,1\H\O,1,r1\O,2,r2,1,
 a1\N,3,r3,2,a2,1,d1,0\O,4,r4,3,a3,2,d2,0\\r1=0.98537664\r2=1.42673666\
 r3=1.38110764\r4=1.20808615\a1=100.6355057\a2=113.13777052\a3=114.3339
 2022\d1=0.\d2=0.\\Version=ES64L-G16RevB.01\State=1-A'\HF=-279.5039239\
 MP2=-280.4550272\RMSD=5.259e-09\RMSF=5.863e-03\ZeroPoint=0.0233075\The
 rmal=0.0272279\Dipole=-0.1177893,0.,-0.3916151\DipoleDeriv=0.3172251,0
 .,0.0383247,0.,0.2979923,0.,-0.0238222,0.,0.2009396,-0.5293565,0.,0.28

 Normal termination of Gaussian 16 at Sun Mar  6 19:17:39 2022.
