 Gaussian 16, Revision B.01,
 Gaussian 16:  ES64L-G16RevB.01 20-Dec-2017

 ---------------------------------------
 #p freq mp2/aug-cc-pvtz density=current
 ---------------------------------------

 -----
 title
 -----
 Symbolic Z-matrix:
 Charge =  0 Multiplicity = 1

                         Standard orientation:
 ---------------------------------------------------------------------
 Center     Atomic      Atomic             Coordinates (Angstroms)
 Number     Number       Type             X           Y           Z
 ---------------------------------------------------------------------
      1          1           0        1.144779   -0.582101   -0.000000
      2          8           0        1.328528    0.385992   -0.000000
      3          8           0        0.000000    0.906175    0.000000
      4          7           0       -0.997069   -0.049499    0.000000
      5          8           0       -0.599190   -1.176092   -0.000000
 ---------------------------------------------------------------------

 SCF Done:  E(RHF) =  -279.506531306     A.U. after   14 cycles
 E2 =    -0.9484995282D+00 EUMP2 =    -0.28045503083460D+03
 E2 =    -0.9484995282D+00 EUMP2 =    -0.28045503083460D+03

 The electronic state is 1-A'.
 Alpha  occ. eigenvalues --  -20.71773 -20.68628 -20.67050 -15.82608  -1.64199
 Alpha  occ. eigenvalues --   -1.50535  -1.29386  -0.96007  -0.83153  -0.75806
 Alpha  occ. eigenvalues --   -0.73867  -0.64004  -0.61897  -0.61680  -0.50360
 Alpha  occ. eigenvalues --   -0.49696
 Alpha virt. eigenvalues --    0.03472   0.06098   0.09518   0.10100   0.11974
 Alpha virt. eigenvalues --    0.12240   0.14842   0.15121   0.17767   0.18077
 Alpha virt. eigenvalues --    0.18999   0.21106   0.21667   0.24023   0.24656

 Mulliken charges:
               1
     1  H    0.281937
     2  O   -0.271923
     3  O    0.038357
     4  N    0.150958
     5  O   -0.199330
 Sum of Mulliken charges =  -0.00000

 Dipole moment (field-independent basis, Debye):
    X=              0.1051    Y=             -1.1098    Z=             -0.0000  Tot=              1.1147
 Quadrupole moment (field-independent basis, Debye-Ang):
   XX=            -23.2392   YY=            -23.0581   ZZ=            -21.9390
   XY=             -2.0115   XZ=              0.0000   YZ=             -0.0000

  Exact polarizability:  31.252   4.311  29.976  -0.000   0.000  17.651
 Approx polarizability:  24.767   0.671  27.643  -0.000   0.000  15.533

                      1                      2                      3
                     A"                     A'                     A"
 Frequencies --    354.2599               362.3634               515.8707
 Red. masses --      1.5431                 6.9871                 2.9775
 Frc consts  --      0.1141                 0.5405                 0.4669
 IR Inten    --     63.9300                 7.7075                25.8270

                      4                      5                      6
                     A'                     A'                     A'
 Frequencies --    714.1045               834.5899               971.2714
 Red. masses --     13.1862                12.1523                 9.4977
 Frc consts  --      3.9618                 4.9872                 5.2790
 IR Inten    --    222.5007                27.5011                13.1118

                      7                      8                      9
                     A'                     A'                     A'
 Frequencies --   1429.6782              1564.4430              3498.8211
 Red. masses --      1.2802                 7.4611                 1.0640
 Frc consts  --      1.5418                10.7590                 7.6745
 IR Inten    --     77.2050               154.3236                37.5660

 - Thermochemistry -
 -------------------
 Temperature   298.150 Kelvin.  Pressure   1.00000 Atm.
 Atom     1 has atomic number  1 and mass   1.00783

 Molecular mass:    62.99564 amu.
 Principal axes and moments of inertia in atomic units:
                           1         2         3
     Eigenvalues --    83.25499 228.16519 311.42017
           X            0.79862  -0.60184   0.00000
           Y            0.60184   0.79862   0.00000
           Z            0.00000  -0.00000   1.00000
 This molecule is an asymmetric top.
 Rotational symmetry number  1.
 Rotational temperatures (Kelvin)      1.04035     0.37961     0.27813
 Rotational constants (GHZ):          21.67727     7.90980     5.79520
 Zero-point vibrational energy      61281.1 (Joules/Mol)
                                   14.64654 (Kcal/Mol)
 Warning -- explicit consideration of   3 degrees of freedom as
           vibrations may cause significant error
 Vibrational temperatures:    509.70   521.36   742.22  1027.44  1200.79
          (Kelvin)           1397.44  2056.99  2250.88  5034.02

 Zero-point correction=                           0.023341 (Hartree/Particle)
 Thermal correction to Energy=                    0.027318
 Thermal correction to Enthalpy=                  0.028262
 Thermal correction to Gibbs Free Energy=        -0.002677
 Sum of electronic and zero-point Energies=           -280.431690
 Sum of electronic and thermal Energies=              -280.427713
 Sum of electronic and thermal Enthalpies=            -280.426769
 Sum of electronic and thermal Free Energies=         -280.457707

                     E (Thermal)             CV                S
                      KCal/Mol        Cal/Mol-Kelvin    Cal/Mol-Kelvin
 Total                   17.142             12.256             65.116
 Electronic               0.000              0.000              0.000
 Translational            0.889              2.981             38.341
 Rotational               0.889              2.981             23.296
 Vibrational             15.365              6.294              3.479
 Vibration     1          0.730              1.567              1.147
 Vibration     2          0.736              1.550              1.112
 Vibration     3          0.871              1.215              0.620

                       ! Non-Optimized Parameters !

 1\1\GINC-N2095\Freq\RMP2-FC\Aug-CC-pVTZ\H1N1O3\CGAVINH\06-Mar-2022\1\\
 #p freq mp2/aug-cc-pvtz density=current\\title\\0,1\H\O,1,r1\O,2,r2,1,
 a1\N,3,r3,2,a2,1,d1,0\O,4,r4,3,a3,2,d2,0\\r1=0.98537664\r2=1.42673666\
 r3=1.38110764\r4=1.19478846\a1=100.6355057\a2=114.83167736\a3=114.3339
 2022\d1=0.\d2=0.\\Version=ES64L-G16RevB.01\State=1-A'\HF=-279.5065313\
 MP2=-280.4550308\RMSD=3.915e-09\RMSF=2.712e-03\ZeroPoint=0.0233407\The
 rmal=0.0273179\Dipole=-0.1220607,0.,-0.4212369\DipoleDeriv=0.3123359,0
 .,0.0440088,0.,0.3008661,0.,-0.0136427,0.,0.1877333,-0.5433491,0.,0.27

 Normal termination of Gaussian 16 at Sun Mar  6 19:35:33 2022.
