 Gaussian 16, Revision B.01,
 Gaussian 16:  ES64L-G16RevB.01 20-Dec-2017

 ---------------------------------------
 #p freq mp2/aug-cc-pvtz density=current
 ---------------------------------------

 -----
 title
 -----
 Symbolic Z-matrix:
 Charge =  0 Multiplicity = 1

                         Standard orientation:
 ---------------------------------------------------------------------
 Center     Atomic      Atomic             Coordinates (Angstroms)
 Number     Number       Type             X           Y           Z
 ---------------------------------------------------------------------
      1          1           0        2.248757    0.434479   -0.013638
      2          8           0        1.598597   -0.283989   -0.010573
      3          8           0        0.400417    0.541026    0.011906
      4          7           0       -0.663760   -0.456740    0.018319
      5          8           0       -1.699319    0.088301   -0.015657
 ---------------------------------------------------------------------

 SCF Done:  E(RHF) =  -279.501657766     A.U. after   14 cycles
 E2 =    -0.9450314528D+00 EUMP2 =    -0.28044668921915D+03
 E2 =    -0.9450314528D+00 EUMP2 =    -0.28044668921915D+03

 The electronic state is 1-A.
 Alpha  occ. eigenvalues --  -20.69085 -20.68432 -20.65999 -15.81282  -1.62404
 Alpha  occ. eigenvalues --   -1.49574  -1.25441  -0.94807  -0.77278  -0.75917
 Alpha  occ. eigenvalues --   -0.71187  -0.67929  -0.62048  -0.58941  -0.48522
 Alpha  occ. eigenvalues --   -0.47250
 Alpha virt. eigenvalues --    0.02963   0.07164   0.08596   0.10172   0.13314
 Alpha virt. eigenvalues --    0.13474   0.14408   0.15454   0.17821   0.19416
 Alpha virt. eigenvalues --    0.19973   0.20643   0.22084   0.23509   0.23777

 Mulliken charges:
               1
     1  H    0.250287
     2  O   -0.201578
     3  O   -0.147267
     4  N    0.291715
     5  O   -0.193157
 Sum of Mulliken charges =  -0.00000

 Dipole moment (field-independent basis, Debye):
    X=              1.2174    Y=              0.7912    Z=             -0.0049  Tot=              1.4519
 Quadrupole moment (field-independent basis, Debye-Ang):
   XX=            -17.9898   YY=            -23.0931   ZZ=            -22.0116
   XY=              2.7922   XZ=             -0.0735   YZ=              0.0287

  Exact polarizability:  41.723   0.975  22.520   0.044  -0.030  17.933
 Approx polarizability:  31.942  -1.131  20.578   0.088  -0.006  15.529

 ******    1 imaginary frequencies (negative Signs) ******

                      1                      2                      3
                      A                      A                      A
 Frequencies --   -269.3731               228.3398               341.4774
 Red. masses --      1.1388                10.5215                 8.6211
 Frc consts  --      0.0487                 0.3232                 0.5923
 IR Inten    --    124.7283                 0.9894                 4.4975

                      4                      5                      6
                      A                      A                      A
 Frequencies --    451.7150               785.4805               967.2561
 Red. masses --     12.3128                12.9167                15.3946
 Frc consts  --      1.4803                 4.6954                 8.4860
 IR Inten    --    199.6079               170.6689                22.5902

                      7                      8                      9
                      A                      A                      A
 Frequencies --   1371.2169              1677.2583              3778.6988
 Red. masses --      1.1334                13.2087                 1.0675
 Frc consts  --      1.2556                21.8932                 8.9809
 IR Inten    --    152.9517               140.4227                82.5574

 - Thermochemistry -
 -------------------
 Temperature   298.150 Kelvin.  Pressure   1.00000 Atm.
 Atom     1 has atomic number  1 and mass   1.00783

 Molecular mass:    62.99564 amu.
 Principal axes and moments of inertia in atomic units:
                           1         2         3
     Eigenvalues --    32.87999 360.09924 392.88748
           X            0.99994   0.01072  -0.00031
           Y           -0.01072   0.99994  -0.00068
           Z            0.00030   0.00068   1.00000
 This molecule is an asymmetric top.
 Rotational symmetry number  1.
 Rotational temperatures (Kelvin)      2.63424     0.24053     0.22045
 Rotational constants (GHZ):          54.88874     5.01179     4.59353
    1 imaginary frequencies ignored.
 Zero-point vibrational energy      57429.4 (Joules/Mol)
                                   13.72595 (Kcal/Mol)
 Warning -- explicit consideration of   3 degrees of freedom as
           vibrations may cause significant error
 Vibrational temperatures:    328.53   491.31   649.92  1130.13  1391.67
          (Kelvin)           1972.88  2413.20  5436.70

 Zero-point correction=                           0.021874 (Hartree/Particle)
 Thermal correction to Energy=                    0.025992
 Thermal correction to Enthalpy=                  0.026936
 Thermal correction to Gibbs Free Energy=        -0.004250
 Sum of electronic and zero-point Energies=           -280.424816
 Sum of electronic and thermal Energies=              -280.420697
 Sum of electronic and thermal Enthalpies=            -280.419753
 Sum of electronic and thermal Free Energies=         -280.450939

                     E (Thermal)             CV                S
                      KCal/Mol        Cal/Mol-Kelvin    Cal/Mol-Kelvin
 Total                   16.310             11.955             65.638
 Electronic               0.000              0.000              0.000
 Translational            0.889              2.981             38.341
 Rotational               0.889              2.981             23.057
 Vibrational             14.533              5.993              4.240
 Vibration     1          0.651              1.798              1.892
 Vibration     2          0.721              1.593              1.205
 Vibration     3          0.810              1.357              0.791

                       ! Non-Optimized Parameters !

 1\1\GINC-N2228\Freq\RMP2-FC\Aug-CC-pVTZ\H1N1O3\CGAVINH\21-Feb-2022\1\\
 #p freq mp2/aug-cc-pvtz density=current\\title\\0,1\H\O,1,r1\O,2,r2,1,
 a1\N,3,r3,2,a2,1,d1,0\O,4,r4,3,a3,2,d2,0\\r1=0.96897556\r2=1.45491931\
 r3=1.45878406\r4=1.17072885\a1=97.59494903\a2=102.29752444\a3=109.0695
 5123\d1=180.\d2=182.69790838\\Version=ES64L-G16RevB.01\State=1-A\HF=-2
 79.5016578\MP2=-280.4466892\RMSD=6.574e-09\RMSF=4.518e-04\ZeroPoint=0.
 0218737\Thermal=0.0259923\Dipole=-0.1462593,-0.0020197,-0.5521908\Dipo
 leDeriv=0.2663692,-0.0004027,0.048261,0.0009412,0.3555588,0.0011869,0.

 Normal termination of Gaussian 16 at Mon Feb 21 21:09:16 2022.
