 Gaussian 16, Revision B.01,
 Gaussian 16:  ES64L-G16RevB.01 20-Dec-2017

 ---------------------------------------
 #p freq mp2/aug-cc-pvtz density=current
 ---------------------------------------

 -----
 title
 -----
 Symbolic Z-matrix:
 Charge =  0 Multiplicity = 1

                         Standard orientation:
 ---------------------------------------------------------------------
 Center     Atomic      Atomic             Coordinates (Angstroms)
 Number     Number       Type             X           Y           Z
 ---------------------------------------------------------------------
      1          1           0        1.079184   -0.610567   -0.000000
      2          8           0        1.304729    0.348650    0.000000
      3          8           0        0.000000    0.925937    0.000000
      4          7           0       -0.986560   -0.040582   -0.000000
      5          8           0       -0.576387   -1.162757   -0.000000
 ---------------------------------------------------------------------

 SCF Done:  E(RHF) =  -279.505936409     A.U. after   14 cycles
 E2 =    -0.9491311241D+00 EUMP2 =    -0.28045506753273D+03
 E2 =    -0.9491311241D+00 EUMP2 =    -0.28045506753273D+03

 The electronic state is 1-A'.
 Alpha  occ. eigenvalues --  -20.72149 -20.68811 -20.66626 -15.82602  -1.64636
 Alpha  occ. eigenvalues --   -1.50494  -1.29371  -0.96059  -0.83764  -0.75966
 Alpha  occ. eigenvalues --   -0.74110  -0.63570  -0.61956  -0.61788  -0.50566
 Alpha  occ. eigenvalues --   -0.49792
 Alpha virt. eigenvalues --    0.03535   0.05960   0.09501   0.09991   0.11969
 Alpha virt. eigenvalues --    0.12277   0.14986   0.15289   0.17738   0.17994
 Alpha virt. eigenvalues --    0.18961   0.21097   0.21672   0.24419   0.24619

 Mulliken charges:
               1
     1  H    0.273098
     2  O   -0.276064
     3  O    0.037598
     4  N    0.156797
     5  O   -0.191428
 Sum of Mulliken charges =  -0.00000

 Dipole moment (field-independent basis, Debye):
    X=              0.0065    Y=             -1.0808    Z=             -0.0000  Tot=              1.0808
 Quadrupole moment (field-independent basis, Debye-Ang):
   XX=            -23.4933   YY=            -22.8444   ZZ=            -21.9281
   XY=             -1.9424   XZ=              0.0000   YZ=             -0.0000

  Exact polarizability:  30.651   4.011  29.759  -0.000   0.000  17.592
 Approx polarizability:  24.391   0.398  27.676   0.000   0.000  15.499

                      1                      2                      3
                     A"                     A'                     A"
 Frequencies --    351.6640               428.1899               530.0739
 Red. masses --      1.5630                 7.1501                 2.8749
 Frc consts  --      0.1139                 0.7724                 0.4759
 IR Inten    --     62.0992                 7.8666                24.9757

                      4                      5                      6
                     A'                     A'                     A'
 Frequencies --    709.2286               839.0956               970.4533
 Red. masses --     13.4804                12.5809                10.0126
 Frc consts  --      3.9951                 5.2190                 5.5558
 IR Inten    --    212.9626                33.1750                12.5588

                      7                      8                      9
                     A'                     A'                     A'
 Frequencies --   1438.3411              1576.2546              3476.4069
 Red. masses --      1.3363                 5.5479                 1.0635
 Frc consts  --      1.6288                 8.1214                 7.5728
 IR Inten    --     82.1453               147.5494                48.0139

 - Thermochemistry -
 -------------------
 Temperature   298.150 Kelvin.  Pressure   1.00000 Atm.
 Atom     1 has atomic number  1 and mass   1.00783

 Molecular mass:    62.99564 amu.
 Principal axes and moments of inertia in atomic units:
                           1         2         3
     Eigenvalues --    85.56175 217.98806 303.54981
           X            0.79380  -0.60817   0.00000
           Y            0.60817   0.79380   0.00000
           Z            0.00000  -0.00000   1.00000
 This molecule is an asymmetric top.
 Rotational symmetry number  1.
 Rotational temperatures (Kelvin)      1.01230     0.39733     0.28534
 Rotational constants (GHZ):          21.09285     8.27908     5.94545
 Zero-point vibrational energy      61725.6 (Joules/Mol)
                                   14.75276 (Kcal/Mol)
 Warning -- explicit consideration of   3 degrees of freedom as
           vibrations may cause significant error
 Vibrational temperatures:    505.97   616.07   762.66  1020.42  1207.27
          (Kelvin)           1396.27  2069.45  2267.88  5001.77

 Zero-point correction=                           0.023510 (Hartree/Particle)
 Thermal correction to Energy=                    0.027416
 Thermal correction to Enthalpy=                  0.028360
 Thermal correction to Gibbs Free Energy=        -0.002431
 Sum of electronic and zero-point Energies=           -280.431558
 Sum of electronic and thermal Energies=              -280.427652
 Sum of electronic and thermal Enthalpies=            -280.426708
 Sum of electronic and thermal Free Energies=         -280.457499

                     E (Thermal)             CV                S
                      KCal/Mol        Cal/Mol-Kelvin    Cal/Mol-Kelvin
 Total                   17.204             12.087             64.806
 Electronic               0.000              0.000              0.000
 Translational            0.889              2.981             38.341
 Rotational               0.889              2.981             23.253
 Vibrational             15.426              6.125              3.213
 Vibration     1          0.728              1.572              1.159
 Vibration     2          0.790              1.409              0.865
 Vibration     3          0.885              1.183              0.587

                       ! Non-Optimized Parameters !

 1\1\GINC-N2108\Freq\RMP2-FC\Aug-CC-pVTZ\H1N1O3\CGAVINH\06-Mar-2022\1\\
 #p freq mp2/aug-cc-pvtz density=current\\title\\0,1\H\O,1,r1\O,2,r2,1,
 a1\N,3,r3,2,a2,1,d1,0\O,4,r4,3,a3,2,d2,0\\r1=0.98537664\r2=1.42673666\
 r3=1.38110764\r4=1.19478846\a1=100.6355057\a2=111.72054638\a3=114.3339
 2022\d1=0.\d2=0.\\Version=ES64L-G16RevB.01\State=1-A'\HF=-279.5059364\
 MP2=-280.4550675\RMSD=4.712e-09\RMSF=2.584e-03\ZeroPoint=0.02351\Therm
 al=0.0274158\Dipole=-0.0998347,0.,-0.4133484\DipoleDeriv=0.3206676,0.,
 0.0322137,0.,0.2956681,0.,-0.0341341,0.,0.2111376,-0.5163699,0.,0.2847

 Normal termination of Gaussian 16 at Sun Mar  6 19:39:26 2022.
