 Gaussian 16, Revision B.01,
 Gaussian 16:  ES64L-G16RevB.01 20-Dec-2017

 ---------------------------------------
 #p freq mp2/aug-cc-pvtz density=current
 ---------------------------------------

 -----
 title
 -----
 Symbolic Z-matrix:
 Charge =  0 Multiplicity = 1

                         Standard orientation:
 ---------------------------------------------------------------------
 Center     Atomic      Atomic             Coordinates (Angstroms)
 Number     Number       Type             X           Y           Z
 ---------------------------------------------------------------------
      1          1           0        1.528387    1.690313    0.000000
      2          8           0        1.454017    0.724195    0.000000
      3          8           0       -0.000000    0.672955    0.000000
      4          7           0       -0.260313   -0.762416   -0.000000
      5          8           0       -1.417291   -0.941325   -0.000000
 ---------------------------------------------------------------------

 SCF Done:  E(RHF) =  -279.501477049     A.U. after   14 cycles
 E2 =    -0.9452144354D+00 EUMP2 =    -0.28044669148419D+03
 E2 =    -0.9452144354D+00 EUMP2 =    -0.28044669148419D+03

 The electronic state is 1-A'.
 Alpha  occ. eigenvalues --  -20.69075 -20.68428 -20.66044 -15.81281  -1.62408
 Alpha  occ. eigenvalues --   -1.49648  -1.25423  -0.94813  -0.77338  -0.75842
 Alpha  occ. eigenvalues --   -0.71192  -0.67905  -0.62067  -0.59052  -0.48537
 Alpha  occ. eigenvalues --   -0.47251
 Alpha virt. eigenvalues --    0.02976   0.07163   0.08593   0.10168   0.13390
 Alpha virt. eigenvalues --    0.13403   0.14410   0.15460   0.17822   0.19405
 Alpha virt. eigenvalues --    0.19970   0.20640   0.22075   0.23538   0.23737

 Mulliken charges:
               1
     1  H    0.251902
     2  O   -0.201691
     3  O   -0.148116
     4  N    0.291268
     5  O   -0.193364
 Sum of Mulliken charges =  -0.00000

 Dipole moment (field-independent basis, Debye):
    X=              0.4811    Y=              1.3587    Z=              0.0000  Tot=              1.4413
 Quadrupole moment (field-independent basis, Debye-Ang):
   XX=            -22.5672   YY=            -18.6036   ZZ=            -22.0084
   XY=              3.1860   XZ=             -0.0000   YZ=              0.0000

  Exact polarizability:  33.935   9.433  30.252   0.000   0.000  17.917
 Approx polarizability:  28.999   5.075  23.533   0.000   0.000  15.516

 ******    1 imaginary frequencies (negative Signs) ******

                      1                      2                      3
                     A"                     A"                     A'
 Frequencies --   -259.6549               226.7107               339.3994
 Red. masses --      1.1243                12.0327                 8.6736
 Frc consts  --      0.0447                 0.3644                 0.5887
 IR Inten    --    124.2356                 0.1542                 5.0870

                      4                      5                      6
                     A'                     A'                     A'
 Frequencies --    452.4437               786.4259               968.9524
 Red. masses --     12.4262                12.9177                15.6609
 Frc consts  --      1.4987                 4.7071                 8.6630
 IR Inten    --    198.6583               169.9940                23.3994

                      7                      8                      9
                     A'                     A'                     A'
 Frequencies --   1378.4991              1677.6019              3778.3032
 Red. masses --      1.1309                13.0657                 1.0672
 Frc consts  --      1.2662                21.6651                 8.9763
 IR Inten    --    157.6951               138.6761                81.1170

 - Thermochemistry -
 -------------------
 Temperature   298.150 Kelvin.  Pressure   1.00000 Atm.
 Atom     1 has atomic number  1 and mass   1.00783

 Molecular mass:    62.99564 amu.
 Principal axes and moments of inertia in atomic units:
                           1         2         3
     Eigenvalues --    32.88458 359.90114 392.78572
           X            0.80947  -0.58716   0.00000
           Y            0.58716   0.80947   0.00000
           Z           -0.00000   0.00000   1.00000
 This molecule is an asymmetric top.
 Rotational symmetry number  1.
 Rotational temperatures (Kelvin)      2.63388     0.24066     0.22051
 Rotational constants (GHZ):          54.88108     5.01455     4.59472
    1 imaginary frequencies ignored.
 Zero-point vibrational energy      57470.6 (Joules/Mol)
                                   13.73581 (Kcal/Mol)
 Warning -- explicit consideration of   3 degrees of freedom as
           vibrations may cause significant error
 Vibrational temperatures:    326.19   488.32   650.97  1131.49  1394.11
          (Kelvin)           1983.35  2413.69  5436.14

 Zero-point correction=                           0.021889 (Hartree/Particle)
 Thermal correction to Energy=                    0.026011
 Thermal correction to Enthalpy=                  0.026955
 Thermal correction to Gibbs Free Energy=        -0.004239
 Sum of electronic and zero-point Energies=           -280.424802
 Sum of electronic and thermal Energies=              -280.420680
 Sum of electronic and thermal Enthalpies=            -280.419736
 Sum of electronic and thermal Free Energies=         -280.450931

                     E (Thermal)             CV                S
                      KCal/Mol        Cal/Mol-Kelvin    Cal/Mol-Kelvin
 Total                   16.322             11.954             65.655
 Electronic               0.000              0.000              0.000
 Translational            0.889              2.981             38.341
 Rotational               0.889              2.981             23.057
 Vibrational             14.545              5.992              4.258
 Vibration     1          0.650              1.800              1.905
 Vibration     2          0.719              1.597              1.215
 Vibration     3          0.811              1.355              0.788

                       ! Non-Optimized Parameters !

 1\1\GINC-N2228\Freq\RMP2-FC\Aug-CC-pVTZ\H1N1O3\CGAVINH\21-Feb-2022\1\\
 #p freq mp2/aug-cc-pvtz density=current\\title\\0,1\H\O,1,r1\O,2,r2,1,
 a1\N,3,r3,2,a2,1,d1,0\O,4,r4,3,a3,2,d2,0\\r1=0.96897556\r2=1.45491931\
 r3=1.45878406\r4=1.17072885\a1=96.42015182\a2=102.29752444\a3=109.0695
 5123\d1=180.\d2=180.\\Version=ES64L-G16RevB.01\State=1-A'\HF=-279.5014
 77\MP2=-280.4466915\RMSD=3.779e-09\RMSF=1.013e-03\ZeroPoint=0.0218894\
 Thermal=0.0260113\Dipole=-0.1476806,0.,-0.5474898\DipoleDeriv=0.270893
 4,0.,0.0525564,0.,0.3541496,0.,0.0799049,0.,0.273513,-0.3362807,0.,-0.

 Normal termination of Gaussian 16 at Mon Feb 21 20:38:23 2022.
