 Gaussian 16, Revision B.01,
 Gaussian 16:  ES64L-G16RevB.01 20-Dec-2017

 ---------------------------------------
 #p freq mp2/aug-cc-pvtz density=current
 ---------------------------------------

 -----
 title
 -----
 Symbolic Z-matrix:
 Charge =  0 Multiplicity = 1

                         Standard orientation:
 ---------------------------------------------------------------------
 Center     Atomic      Atomic             Coordinates (Angstroms)
 Number     Number       Type             X           Y           Z
 ---------------------------------------------------------------------
      1          1           0        1.110860   -0.599570   -0.000000
      2          8           0        1.316436    0.364124    0.000000
      3          8           0        0.000000    0.914191    0.000000
      4          7           0       -0.990386   -0.048407    0.000000
      5          8           0       -0.588706   -1.161013   -0.000000
 ---------------------------------------------------------------------

 SCF Done:  E(RHF) =  -279.508267049     A.U. after   14 cycles
 E2 =    -0.9467787666D+00 EUMP2 =    -0.28045504581535D+03
 E2 =    -0.9467787666D+00 EUMP2 =    -0.28045504581535D+03

 The electronic state is 1-A'.
 Alpha  occ. eigenvalues --  -20.71706 -20.68785 -20.66723 -15.82408  -1.65123
 Alpha  occ. eigenvalues --   -1.50777  -1.29258  -0.95858  -0.83727  -0.76154
 Alpha  occ. eigenvalues --   -0.74193  -0.63748  -0.62107  -0.61887  -0.50250
 Alpha  occ. eigenvalues --   -0.49672
 Alpha virt. eigenvalues --    0.03499   0.06396   0.09515   0.10049   0.11945
 Alpha virt. eigenvalues --    0.12272   0.14932   0.15207   0.17790   0.18025
 Alpha virt. eigenvalues --    0.18981   0.21101   0.21677   0.24369   0.24657

 Mulliken charges:
               1
     1  H    0.276903
     2  O   -0.275036
     3  O    0.035199
     4  N    0.153552
     5  O   -0.190617
 Sum of Mulliken charges =  -0.00000

 Dipole moment (field-independent basis, Debye):
    X=              0.0237    Y=             -1.1478    Z=             -0.0000  Tot=              1.1480
 Quadrupole moment (field-independent basis, Debye-Ang):
   XX=            -23.3570   YY=            -22.9254   ZZ=            -21.9097
   XY=             -1.9467   XZ=             -0.0000   YZ=             -0.0000

  Exact polarizability:  30.831   4.065  29.605  -0.000   0.000  17.587
 Approx polarizability:  24.488   0.542  27.353  -0.000   0.000  15.461

                      1                      2                      3
                     A"                     A'                     A"
 Frequencies --    346.5859               395.5283               511.3496
 Red. masses --      1.6212                 7.1093                 2.7132
 Frc consts  --      0.1147                 0.6553                 0.4180
 IR Inten    --     60.0315                 7.2812                28.1736

                      4                      5                      6
                     A'                     A'                     A'
 Frequencies --    706.6463               836.5663               973.5505
 Red. masses --     13.5973                12.2602                 9.6518
 Frc consts  --      4.0004                 5.0553                 5.3898
 IR Inten    --    222.5141                26.0053                11.9044

                      7                      8                      9
                     A'                     A'                     A'
 Frequencies --   1439.2905              1635.7975              3489.0102
 Red. masses --      1.2322                 9.0266                 1.0637
 Frc consts  --      1.5040                14.2310                 7.6293
 IR Inten    --     81.9162               161.2738                42.3767

 - Thermochemistry -
 -------------------
 Temperature   298.150 Kelvin.  Pressure   1.00000 Atm.
 Atom     1 has atomic number  1 and mass   1.00783

 Molecular mass:    62.99564 amu.
 Principal axes and moments of inertia in atomic units:
                           1         2         3
     Eigenvalues --    83.75816 222.13990 305.89806
           X            0.79946  -0.60072   0.00000
           Y            0.60072   0.79946   0.00000
           Z            0.00000  -0.00000   1.00000
 This molecule is an asymmetric top.
 Rotational symmetry number  1.
 Rotational temperatures (Kelvin)      1.03410     0.38991     0.28315
 Rotational constants (GHZ):          21.54705     8.12434     5.89981
 Zero-point vibrational energy      61813.0 (Joules/Mol)
                                   14.77366 (Kcal/Mol)
 Warning -- explicit consideration of   3 degrees of freedom as
           vibrations may cause significant error
 Vibrational temperatures:    498.66   569.08   735.72  1016.71  1203.63
          (Kelvin)           1400.72  2070.82  2353.55  5019.91

 Zero-point correction=                           0.023543 (Hartree/Particle)
 Thermal correction to Energy=                    0.027499
 Thermal correction to Enthalpy=                  0.028443
 Thermal correction to Gibbs Free Energy=        -0.002437
 Sum of electronic and zero-point Energies=           -280.431502
 Sum of electronic and thermal Energies=              -280.427547
 Sum of electronic and thermal Enthalpies=            -280.426603
 Sum of electronic and thermal Free Energies=         -280.457483

                     E (Thermal)             CV                S
                      KCal/Mol        Cal/Mol-Kelvin    Cal/Mol-Kelvin
 Total                   17.256             12.203             64.993
 Electronic               0.000              0.000              0.000
 Translational            0.889              2.981             38.341
 Rotational               0.889              2.981             23.258
 Vibrational             15.478              6.242              3.395
 Vibration     1          0.725              1.582              1.182
 Vibration     2          0.762              1.480              0.979
 Vibration     3          0.866              1.225              0.630

                       ! Non-Optimized Parameters !

 1\1\GINC-N2109\Freq\RMP2-FC\Aug-CC-pVTZ\H1N1O3\CGAVINH\06-Mar-2022\1\\
 #p freq mp2/aug-cc-pvtz density=current\\title\\0,1\H\O,1,r1\O,2,r2,1,
 a1\N,3,r3,2,a2,1,d1,0\O,4,r4,3,a3,2,d2,0\\r1=0.98537664\r2=1.42673666\
 r3=1.38110764\r4=1.18289465\a1=100.6355057\a2=113.13777052\a3=114.3339
 2022\d1=0.\d2=0.\\Version=ES64L-G16RevB.01\State=1-A'\HF=-279.508267\M
 P2=-280.4550458\RMSD=3.317e-09\RMSF=6.021e-03\ZeroPoint=0.0235433\Ther
 mal=0.0274989\Dipole=-0.1033094,0.,-0.4396828\DipoleDeriv=0.3165732,0.
 ,0.0375872,0.,0.2981073,0.,-0.0250411,0.,0.19868,-0.5274462,0.,0.27755

 Normal termination of Gaussian 16 at Sun Mar  6 19:21:56 2022.
