 Gaussian 16, Revision B.01,
 Gaussian 16:  ES64L-G16RevB.01 20-Dec-2017

 ---------------------------------------
 #p freq mp2/aug-cc-pvtz density=current
 ---------------------------------------

 -----
 title
 -----
 Symbolic Z-matrix:
 Charge =  0 Multiplicity = 1

                         Standard orientation:
 ---------------------------------------------------------------------
 Center     Atomic      Atomic             Coordinates (Angstroms)
 Number     Number       Type             X           Y           Z
 ---------------------------------------------------------------------
      1          1           0       -0.540735   -1.138334    0.034946
      2          8           0       -1.277204   -0.484423    0.003631
      3          8           0       -0.542820    0.738682   -0.012892
      4          7           0        0.825079    0.550842    0.019128
      5          8           0        1.165672   -0.593953   -0.011845
 ---------------------------------------------------------------------

 SCF Done:  E(RHF) =  -279.506287980     A.U. after   16 cycles
 E2 =    -0.9487475783D+00 EUMP2 =    -0.28045503555813D+03
 E2 =    -0.9487475783D+00 EUMP2 =    -0.28045503555813D+03

 The electronic state is 1-A.
 Alpha  occ. eigenvalues --  -20.71969 -20.68726 -20.66834 -15.82597  -1.64423
 Alpha  occ. eigenvalues --   -1.50517  -1.29374  -0.96036  -0.83453  -0.75894
 Alpha  occ. eigenvalues --   -0.73989  -0.63751  -0.61923  -0.61791  -0.50483
 Alpha  occ. eigenvalues --   -0.49725
 Alpha virt. eigenvalues --    0.03505   0.06011   0.09512   0.10038   0.11906
 Alpha virt. eigenvalues --    0.12309   0.14946   0.15204   0.17733   0.18056
 Alpha virt. eigenvalues --    0.18962   0.21117   0.21680   0.24253   0.24632

 Mulliken charges:
               1
     1  H    0.278175
     2  O   -0.274072
     3  O    0.037451
     4  N    0.154386
     5  O   -0.195939
 Sum of Mulliken charges =  -0.00000

 Dipole moment (field-independent basis, Debye):
    X=              0.6062    Y=             -0.9134    Z=              0.0500  Tot=              1.0974
 Quadrupole moment (field-independent basis, Debye-Ang):
   XX=            -25.1099   YY=            -21.2132   ZZ=            -21.9306
   XY=              0.3840   XZ=             -0.0328   YZ=             -0.1290

  Exact polarizability:  34.494  -0.730  26.271   0.043  -0.009  17.625
 Approx polarizability:  26.138  -1.636  26.068   0.021   0.008  15.523

                      1                      2                      3
                      A                      A                      A
 Frequencies --    351.0830               395.5139               521.7241
 Red. masses --      1.5414                 7.1503                 2.9559
 Frc consts  --      0.1119                 0.6590                 0.4741
 IR Inten    --     63.5203                 7.8106                25.3320

                      4                      5                      6
                      A                      A                      A
 Frequencies --    711.5440               837.2324               970.9963
 Red. masses --     13.3016                12.3579                 9.7905
 Frc consts  --      3.9679                 5.1037                 5.4386
 IR Inten    --    217.3080                30.5808                12.7798

                      7                      8                      9
                      A                      A                      A
 Frequencies --   1434.7104              1570.1381              3488.1067
 Red. masses --      1.3055                 6.3839                 1.0638
 Frc consts  --      1.5833                 9.2729                 7.6257
 IR Inten    --     79.8524               149.9611                42.4631

 - Thermochemistry -
 -------------------
 Temperature   298.150 Kelvin.  Pressure   1.00000 Atm.
 Atom     1 has atomic number  1 and mass   1.00783

 Molecular mass:    62.99564 amu.
 Principal axes and moments of inertia in atomic units:
                           1         2         3
     Eigenvalues --    84.49102 222.77121 307.18100
           X            0.99987   0.01593  -0.00032
           Y           -0.01593   0.99987  -0.00171
           Z            0.00030   0.00171   1.00000
 This molecule is an asymmetric top.
 Rotational symmetry number  1.
 Rotational temperatures (Kelvin)      1.02513     0.38880     0.28196
 Rotational constants (GHZ):          21.36015     8.10132     5.87517
 Zero-point vibrational energy      61494.3 (Joules/Mol)
                                   14.69750 (Kcal/Mol)
 Warning -- explicit consideration of   3 degrees of freedom as
           vibrations may cause significant error
 Vibrational temperatures:    505.13   569.06   750.64  1023.75  1204.59
          (Kelvin)           1397.05  2064.23  2259.08  5018.61

 Zero-point correction=                           0.023422 (Hartree/Particle)
 Thermal correction to Energy=                    0.027365
 Thermal correction to Enthalpy=                  0.028309
 Thermal correction to Gibbs Free Energy=        -0.002557
 Sum of electronic and zero-point Energies=           -280.431614
 Sum of electronic and thermal Energies=              -280.427671
 Sum of electronic and thermal Enthalpies=            -280.426727
 Sum of electronic and thermal Free Energies=         -280.457592

                     E (Thermal)             CV                S
                      KCal/Mol        Cal/Mol-Kelvin    Cal/Mol-Kelvin
 Total                   17.172             12.177             64.962
 Electronic               0.000              0.000              0.000
 Translational            0.889              2.981             38.341
 Rotational               0.889              2.981             23.274
 Vibrational             15.394              6.216              3.348
 Vibration     1          0.728              1.573              1.161
 Vibration     2          0.762              1.480              0.979
 Vibration     3          0.877              1.202              0.606

                       ! Non-Optimized Parameters !

 1\1\GINC-N2110\Freq\RMP2-FC\Aug-CC-pVTZ\H1N1O3\CGAVINH\06-Mar-2022\1\\
 #p freq mp2/aug-cc-pvtz density=current\\title\\0,1\H\O,1,r1\O,2,r2,1,
 a1\N,3,r3,2,a2,1,d1,0\O,4,r4,3,a3,2,d2,0\\r1=0.98537664\r2=1.42673666\
 r3=1.38110764\r4=1.19478846\a1=100.6355057\a2=113.13777052\a3=114.3339
 2022\d1=0.\d2=3.52162259\\Version=ES64L-G16RevB.01\State=1-A\HF=-279.5
 06288\MP2=-280.4550356\RMSD=6.618e-09\RMSF=1.839e-03\ZeroPoint=0.02342
 2\Thermal=0.0273646\Dipole=-0.110413,-0.0057667,-0.4173727\DipoleDeriv
 =0.3165259,0.0026677,0.038263,0.0033936,0.2981896,-0.0003341,-0.023904

 Normal termination of Gaussian 16 at Sun Mar  6 20:02:29 2022.
