 Gaussian 16, Revision B.01,
 Gaussian 16:  ES64L-G16RevB.01 20-Dec-2017

 ---------------------------------------
 #p freq mp2/aug-cc-pvtz density=current
 ---------------------------------------

 -----
 title
 -----
 Symbolic Z-matrix:
 Charge =  0 Multiplicity = 1

                         Standard orientation:
 ---------------------------------------------------------------------
 Center     Atomic      Atomic             Coordinates (Angstroms)
 Number     Number       Type             X           Y           Z
 ---------------------------------------------------------------------
      1          1           0        1.098298   -0.608335    0.000000
      2          8           0        1.311840    0.353625    0.000000
      3          8           0       -0.000000    0.914565    0.000000
      4          7           0       -0.998316   -0.039806    0.000000
      5          8           0       -0.575601   -1.157317    0.000000
 ---------------------------------------------------------------------

 SCF Done:  E(RHF) =  -279.506163562     A.U. after   14 cycles
 E2 =    -0.9488934138D+00 EUMP2 =    -0.28045505697548D+03
 E2 =    -0.9488934138D+00 EUMP2 =    -0.28045505697548D+03

 The electronic state is 1-A'.
 Alpha  occ. eigenvalues --  -20.71843 -20.68657 -20.66737 -15.82689  -1.64602
 Alpha  occ. eigenvalues --   -1.50324  -1.29320  -0.95992  -0.83653  -0.75921
 Alpha  occ. eigenvalues --   -0.74022  -0.63543  -0.61751  -0.61746  -0.50696
 Alpha  occ. eigenvalues --   -0.49676
 Alpha virt. eigenvalues --    0.03518   0.05947   0.09512   0.10016   0.11968
 Alpha virt. eigenvalues --    0.12253   0.14972   0.15229   0.17732   0.18030
 Alpha virt. eigenvalues --    0.19004   0.21090   0.21666   0.24241   0.24636

 Mulliken charges:
               1
     1  H    0.277069
     2  O   -0.274284
     3  O    0.038089
     4  N    0.153664
     5  O   -0.194538
 Sum of Mulliken charges =  -0.00000

 Dipole moment (field-independent basis, Debye):
    X=              0.0193    Y=             -1.0924    Z=              0.0000  Tot=              1.0926
 Quadrupole moment (field-independent basis, Debye-Ang):
   XX=            -23.3497   YY=            -22.9320   ZZ=            -21.9283
   XY=             -1.9865   XZ=              0.0000   YZ=              0.0000

  Exact polarizability:  30.883   4.039  29.684   0.000   0.000  17.592
 Approx polarizability:  24.631   0.379  27.485  -0.000  -0.000  15.501

                      1                      2                      3
                     A"                     A'                     A"
 Frequencies --    355.9840               417.0773               531.3645
 Red. masses --      1.5433                 6.9798                 2.9532
 Frc consts  --      0.1152                 0.7154                 0.4913
 IR Inten    --     62.9478                 7.9767                25.1295

                      4                      5                      6
                     A'                     A'                     A'
 Frequencies --    720.5070               834.0379               974.9336
 Red. masses --     13.5504                12.3580                 9.5045
 Frc consts  --      4.1446                 5.0649                 5.3227
 IR Inten    --    219.2057                26.2602                11.7787

                      7                      8                      9
                     A'                     A'                     A'
 Frequencies --   1426.4786              1572.0200              3484.5601
 Red. masses --      1.3094                 6.4704                 1.0634
 Frc consts  --      1.5699                 9.4210                 7.6073
 IR Inten    --     81.3323               147.6185                45.0474

 - Thermochemistry -
 -------------------
 Temperature   298.150 Kelvin.  Pressure   1.00000 Atm.
 Atom     1 has atomic number  1 and mass   1.00783

 Molecular mass:    62.99564 amu.
 Principal axes and moments of inertia in atomic units:
                           1         2         3
     Eigenvalues --    85.07745 219.06815 304.14560
           X            0.80233  -0.59688   0.00000
           Y            0.59688   0.80233   0.00000
           Z            0.00000   0.00000   1.00000
 This molecule is an asymmetric top.
 Rotational symmetry number  1.
 Rotational temperatures (Kelvin)      1.01806     0.39537     0.28478
 Rotational constants (GHZ):          21.21292     8.23826     5.93381
 Zero-point vibrational energy      61709.1 (Joules/Mol)
                                   14.74884 (Kcal/Mol)
 Warning -- explicit consideration of   3 degrees of freedom as
           vibrations may cause significant error
 Vibrational temperatures:    512.18   600.08   764.52  1036.65  1199.99
          (Kelvin)           1402.71  2052.38  2261.79  5013.50

 Zero-point correction=                           0.023504 (Hartree/Particle)
 Thermal correction to Energy=                    0.027411
 Thermal correction to Enthalpy=                  0.028355
 Thermal correction to Gibbs Free Energy=        -0.002439
 Sum of electronic and zero-point Energies=           -280.431553
 Sum of electronic and thermal Energies=              -280.427646
 Sum of electronic and thermal Enthalpies=            -280.426702
 Sum of electronic and thermal Free Energies=         -280.457496

                     E (Thermal)             CV                S
                      KCal/Mol        Cal/Mol-Kelvin    Cal/Mol-Kelvin
 Total                   17.201             12.085             64.812
 Electronic               0.000              0.000              0.000
 Translational            0.889              2.981             38.341
 Rotational               0.889              2.981             23.254
 Vibrational             15.423              6.124              3.218
 Vibration     1          0.731              1.563              1.140
 Vibration     2          0.780              1.433              0.902
 Vibration     3          0.886              1.181              0.584

                       ! Non-Optimized Parameters !

 1\1\GINC-N2109\Freq\RMP2-FC\Aug-CC-pVTZ\H1N1O3\CGAVINH\06-Mar-2022\1\\
 #p freq mp2/aug-cc-pvtz density=current\\title\\0,1\H\O,1,r1\O,2,r2,1,
 a1\N,3,r3,2,a2,1,d1,0\O,4,r4,3,a3,2,d2,0\\r1=0.98537664\r2=1.42673666\
 r3=1.38110764\r4=1.19478846\a1=100.6355057\a2=113.13777052\a3=112.9909
 0424\d1=0.\d2=0.\\Version=ES64L-G16RevB.01\State=1-A'\HF=-279.5061636\
 MP2=-280.455057\RMSD=4.552e-09\RMSF=2.980e-03\ZeroPoint=0.0235038\Ther
 mal=0.0274108\Dipole=-0.1005697,0.,-0.4179342\DipoleDeriv=0.3202353,0.
 ,0.035985,0.,0.2975526,0.,-0.028102,0.,0.205148,-0.5261104,0.,0.284279

 Normal termination of Gaussian 16 at Sun Mar  6 19:48:53 2022.
