 Gaussian 16, Revision B.01,
 Gaussian 16:  ES64L-G16RevB.01 20-Dec-2017

 ---------------------------------------
 #p freq mp2/aug-cc-pvtz density=current
 ---------------------------------------

 -----
 title
 -----
 Symbolic Z-matrix:
 Charge =  0 Multiplicity = 1

                         Standard orientation:
 ---------------------------------------------------------------------
 Center     Atomic      Atomic             Coordinates (Angstroms)
 Number     Number       Type             X           Y           Z
 ---------------------------------------------------------------------
      1          1           0        1.107043   -0.608150    0.000000
      2          8           0        1.315872    0.365904    0.000000
      3          8           0        0.000000    0.917319    0.000000
      4          7           0       -0.991371   -0.044264    0.000000
      5          8           0       -0.586803   -1.168473    0.000000
 ---------------------------------------------------------------------

 SCF Done:  E(RHF) =  -279.505690103     A.U. after   14 cycles
 E2 =    -0.9494618714D+00 EUMP2 =    -0.28045515197441D+03
 E2 =    -0.9494618714D+00 EUMP2 =    -0.28045515197441D+03

 The electronic state is 1-A'.
 Alpha  occ. eigenvalues --  -20.71964 -20.68739 -20.66862 -15.82602  -1.64411
 Alpha  occ. eigenvalues --   -1.50425  -1.29182  -0.95971  -0.83423  -0.75880
 Alpha  occ. eigenvalues --   -0.73980  -0.63491  -0.61843  -0.61815  -0.50482
 Alpha  occ. eigenvalues --   -0.49705
 Alpha virt. eigenvalues --    0.03498   0.06020   0.09518   0.10035   0.11980
 Alpha virt. eigenvalues --    0.12263   0.14913   0.15196   0.17771   0.18038
 Alpha virt. eigenvalues --    0.18981   0.21087   0.21659   0.24290   0.24638

 Mulliken charges:
               1
     1  H    0.283888
     2  O   -0.281086
     3  O    0.037940
     4  N    0.154695
     5  O   -0.195437
 Sum of Mulliken charges =  -0.00000

 Dipole moment (field-independent basis, Debye):
    X=              0.0483    Y=             -1.1039    Z=              0.0000  Tot=              1.1050
 Quadrupole moment (field-independent basis, Debye-Ang):
   XX=            -23.3944   YY=            -22.9263   ZZ=            -21.9468
   XY=             -1.9841   XZ=              0.0000   YZ=              0.0000

  Exact polarizability:  30.989   4.141  29.931   0.000   0.000  17.645
 Approx polarizability:  24.619   0.538  27.754  -0.000  -0.000  15.531

                      1                      2                      3
                     A'                     A"                     A"
 Frequencies --    399.7434               439.8519               578.3204
 Red. masses --      7.1548                 3.6447                 1.4063
 Frc consts  --      0.6736                 0.4155                 0.2771
 IR Inten    --      7.6731                24.2742                63.0029

                      4                      5                      6
                     A'                     A'                     A'
 Frequencies --    712.2588               836.1707               974.2121
 Red. masses --     13.5658                12.2432                10.4000
 Frc consts  --      4.0548                 5.0435                 5.8156
 IR Inten    --    215.9454                30.6051                11.2838

                      7                      8                      9
                     A'                     A'                     A'
 Frequencies --   1449.8158              1573.6666              3352.4380
 Red. masses --      1.3456                 5.3492                 1.0633
 Frc consts  --      1.6665                 7.8048                 7.0410
 IR Inten    --     82.0515               152.5699                44.0809

 - Thermochemistry -
 -------------------
 Temperature   298.150 Kelvin.  Pressure   1.00000 Atm.
 Atom     1 has atomic number  1 and mass   1.00783

 Molecular mass:    62.99564 amu.
 Principal axes and moments of inertia in atomic units:
                           1         2         3
     Eigenvalues --    84.58720 222.57744 307.16465
           X            0.79618  -0.60506   0.00000
           Y            0.60506   0.79618   0.00000
           Z            0.00000   0.00000   1.00000
 This molecule is an asymmetric top.
 Rotational symmetry number  1.
 Rotational temperatures (Kelvin)      1.02396     0.38914     0.28198
 Rotational constants (GHZ):          21.33587     8.10837     5.87548
 Zero-point vibrational energy      61706.2 (Joules/Mol)
                                   14.74815 (Kcal/Mol)
 Warning -- explicit consideration of   3 degrees of freedom as
           vibrations may cause significant error
 Vibrational temperatures:    575.14   632.85   832.07  1024.78  1203.06
          (Kelvin)           1401.67  2085.96  2264.16  4823.41

 Zero-point correction=                           0.023503 (Hartree/Particle)
 Thermal correction to Energy=                    0.027316
 Thermal correction to Enthalpy=                  0.028261
 Thermal correction to Gibbs Free Energy=        -0.002382
 Sum of electronic and zero-point Energies=           -280.431649
 Sum of electronic and thermal Energies=              -280.427836
 Sum of electronic and thermal Enthalpies=            -280.426891
 Sum of electronic and thermal Free Energies=         -280.457534

                     E (Thermal)             CV                S
                      KCal/Mol        Cal/Mol-Kelvin    Cal/Mol-Kelvin
 Total                   17.141             11.846             64.492
 Electronic               0.000              0.000              0.000
 Translational            0.889              2.981             38.341
 Rotational               0.889              2.981             23.274
 Vibrational             15.364              5.884              2.878
 Vibration     1          0.766              1.471              0.964
 Vibration     2          0.800              1.383              0.827
 Vibration     3          0.935              1.078              0.488

                       ! Non-Optimized Parameters !

 1\1\GINC-N2228\Freq\RMP2-FC\Aug-CC-pVTZ\H1N1O3\CGAVINH\06-Mar-2022\1\\
 #p freq mp2/aug-cc-pvtz density=current\\title\\0,1\H\O,1,r1\O,2,r2,1,
 a1\N,3,r3,2,a2,1,d1,0\O,4,r4,3,a3,2,d2,0\\r1=0.99618767\r2=1.42673666\
 r3=1.38110764\r4=1.19478846\a1=100.6355057\a2=113.13777052\a3=114.3339
 2022\d1=0.\d2=0.\\Version=ES64L-G16RevB.01\State=1-A'\HF=-279.5056901\
 MP2=-280.455152\RMSD=4.575e-09\RMSF=3.068e-03\ZeroPoint=0.0235027\Ther
 mal=0.0273165\Dipole=-0.1096222,0.,-0.4206781\DipoleDeriv=0.3210771,0.
 ,0.0363015,0.,0.2963996,0.,-0.0298542,0.,0.2023523,-0.5291676,0.,0.281

 Normal termination of Gaussian 16 at Sun Mar  6 18:50:35 2022.
