 Gaussian 16, Revision B.01,
 Gaussian 16:  ES64L-G16RevB.01 20-Dec-2017

 ---------------------------------------
 #p freq mp2/aug-cc-pvtz density=current
 ---------------------------------------

 -----
 title
 -----
 Symbolic Z-matrix:
 Charge =  0 Multiplicity = 1

                         Standard orientation:
 ---------------------------------------------------------------------
 Center     Atomic      Atomic             Coordinates (Angstroms)
 Number     Number       Type             X           Y           Z
 ---------------------------------------------------------------------
      1          1           0        1.548599    1.682440    0.000000
      2          8           0        1.454062    0.723101    0.000000
      3          8           0        0.000000    0.673164    0.000000
      4          7           0       -0.261600   -0.761972   -0.000000
      5          8           0       -1.418737   -0.939845   -0.000000
 ---------------------------------------------------------------------

 SCF Done:  E(RHF) =  -279.501903109     A.U. after   14 cycles
 E2 =    -0.9448086253D+00 EUMP2 =    -0.28044671173429D+03
 E2 =    -0.9448086253D+00 EUMP2 =    -0.28044671173429D+03

 The electronic state is 1-A'.
 Alpha  occ. eigenvalues --  -20.69102 -20.68439 -20.65959 -15.81294  -1.62415
 Alpha  occ. eigenvalues --   -1.49637  -1.25539  -0.94818  -0.77320  -0.75958
 Alpha  occ. eigenvalues --   -0.71191  -0.68013  -0.62061  -0.58967  -0.48540
 Alpha  occ. eigenvalues --   -0.47264
 Alpha virt. eigenvalues --    0.02972   0.07160   0.08592   0.10171   0.13392
 Alpha virt. eigenvalues --    0.13394   0.14428   0.15472   0.17819   0.19416
 Alpha virt. eigenvalues --    0.19979   0.20637   0.22080   0.23528   0.23733

 Mulliken charges:
               1
     1  H    0.246068
     2  O   -0.197400
     3  O   -0.147488
     4  N    0.292080
     5  O   -0.193260
 Sum of Mulliken charges =   0.00000

 Dipole moment (field-independent basis, Debye):
    X=              0.5056    Y=              1.3544    Z=             -0.0000  Tot=              1.4457
 Quadrupole moment (field-independent basis, Debye-Ang):
   XX=            -22.4668   YY=            -18.6351   ZZ=            -22.0041
   XY=              3.2461   XZ=             -0.0000   YZ=              0.0000

  Exact polarizability:  33.978   9.448  30.183   0.000  -0.000  17.915
 Approx polarizability:  28.994   5.099  23.469   0.000   0.000  15.514

 ******    1 imaginary frequencies (negative Signs) ******

                      1                      2                      3
                     A"                     A"                     A'
 Frequencies --   -379.0242               228.4738               336.5652
 Red. masses --      1.1274                11.5523                 8.3984
 Frc consts  --      0.0954                 0.3553                 0.5605
 IR Inten    --    125.7556                 0.2967                 4.9905

                      4                      5                      6
                     A'                     A'                     A'
 Frequencies --    451.7404               783.5465               966.9499
 Red. masses --     12.3101                12.6842                15.4959
 Frc consts  --      1.4801                 4.5882                 8.5364
 IR Inten    --    199.4029               167.1440                23.7339

                      7                      8                      9
                     A'                     A'                     A'
 Frequencies --   1354.8540              1677.2321              3843.8076
 Red. masses --      1.1376                13.3189                 1.0675
 Frc consts  --      1.2303                22.0752                 9.2930
 IR Inten    --    153.7827               141.4138                83.1552

 - Thermochemistry -
 -------------------
 Temperature   298.150 Kelvin.  Pressure   1.00000 Atm.
 Atom     1 has atomic number  1 and mass   1.00783

 Molecular mass:    62.99564 amu.
 Principal axes and moments of inertia in atomic units:
                           1         2         3
     Eigenvalues --    32.82784 360.09237 392.92022
           X            0.81021  -0.58615   0.00000
           Y            0.58615   0.81021   0.00000
           Z           -0.00000   0.00000   1.00000
 This molecule is an asymmetric top.
 Rotational symmetry number  1.
 Rotational temperatures (Kelvin)      2.63843     0.24053     0.22044
 Rotational constants (GHZ):          54.97593     5.01188     4.59315
    1 imaginary frequencies ignored.
 Zero-point vibrational energy      57679.0 (Joules/Mol)
                                   13.78560 (Kcal/Mol)
 Warning -- explicit consideration of   3 degrees of freedom as
           vibrations may cause significant error
 Vibrational temperatures:    328.72   484.24   649.95  1127.35  1391.23
          (Kelvin)           1949.33  2413.16  5530.38

 Zero-point correction=                           0.021969 (Hartree/Particle)
 Thermal correction to Energy=                    0.026094
 Thermal correction to Enthalpy=                  0.027038
 Thermal correction to Gibbs Free Energy=        -0.004160
 Sum of electronic and zero-point Energies=           -280.424743
 Sum of electronic and thermal Energies=              -280.420618
 Sum of electronic and thermal Enthalpies=            -280.419674
 Sum of electronic and thermal Free Energies=         -280.450872

                     E (Thermal)             CV                S
                      KCal/Mol        Cal/Mol-Kelvin    Cal/Mol-Kelvin
 Total                   16.374             11.975             65.661
 Electronic               0.000              0.000              0.000
 Translational            0.889              2.981             38.341
 Rotational               0.889              2.981             23.056
 Vibrational             14.597              6.013              4.265
 Vibration     1          0.651              1.798              1.891
 Vibration     2          0.717              1.602              1.228
 Vibration     3          0.810              1.357              0.791

                       ! Non-Optimized Parameters !

 1\1\GINC-N2108\Freq\RMP2-FC\Aug-CC-pVTZ\H1N1O3\CGAVINH\21-Feb-2022\1\\
 #p freq mp2/aug-cc-pvtz density=current\\title\\0,1\H\O,1,r1\O,2,r2,1,
 a1\N,3,r3,2,a2,1,d1,0\O,4,r4,3,a3,2,d2,0\\r1=0.96398533\r2=1.45491931\
 r3=1.45878406\r4=1.17072885\a1=97.59494903\a2=102.29752444\a3=109.0695
 5123\d1=180.\d2=180.\\Version=ES64L-G16RevB.01\State=1-A'\HF=-279.5019
 031\MP2=-280.4467117\RMSD=3.789e-09\RMSF=1.814e-03\ZeroPoint=0.0219688
 \Thermal=0.0260939\Dipole=-0.1457096,0.,-0.5497972\DipoleDeriv=0.26575
 22,0.,0.04843,0.,0.3562502,0.,0.0831223,0.,0.2762712,-0.3280963,0.,-0.

 Normal termination of Gaussian 16 at Mon Feb 21 20:06:18 2022.
