 Gaussian 16, Revision B.01,
 Gaussian 16:  ES64L-G16RevB.01 20-Dec-2017

 ---------------------------------------
 #p freq mp2/aug-cc-pvtz density=current
 ---------------------------------------

 -----
 title
 -----
 Symbolic Z-matrix:
 Charge =  0 Multiplicity = 1

                         Standard orientation:
 ---------------------------------------------------------------------
 Center     Atomic      Atomic             Coordinates (Angstroms)
 Number     Number       Type             X           Y           Z
 ---------------------------------------------------------------------
      1          1           0        1.108605   -0.597435   -0.000000
      2          8           0        1.315616    0.365951    0.000000
      3          8           0        0.000000    0.917978    0.000000
      4          7           0       -0.991818   -0.043144   -0.000000
      5          8           0       -0.586351   -1.171498   -0.000000
 ---------------------------------------------------------------------

 SCF Done:  E(RHF) =  -279.505686061     A.U. after   14 cycles
 E2 =    -0.9495339682D+00 EUMP2 =    -0.28045522002930D+03
 E2 =    -0.9495339682D+00 EUMP2 =    -0.28045522002930D+03

 The electronic state is 1-A'.
 Alpha  occ. eigenvalues --  -20.72076 -20.68705 -20.66866 -15.82671  -1.64199
 Alpha  occ. eigenvalues --   -1.50413  -1.29419  -0.96099  -0.83383  -0.75804
 Alpha  occ. eigenvalues --   -0.73935  -0.63733  -0.61867  -0.61741  -0.50546
 Alpha  occ. eigenvalues --   -0.49778
 Alpha virt. eigenvalues --    0.03509   0.05895   0.09509   0.10035   0.11981
 Alpha virt. eigenvalues --    0.12256   0.14932   0.15203   0.17740   0.18037
 Alpha virt. eigenvalues --    0.18977   0.21101   0.21668   0.24213   0.24628

 Mulliken charges:
               1
     1  H    0.278266
     2  O   -0.273899
     3  O    0.038825
     4  N    0.154170
     5  O   -0.197362
 Sum of Mulliken charges =  -0.00000

 Dipole moment (field-independent basis, Debye):
    X=              0.0616    Y=             -1.0754    Z=             -0.0000  Tot=              1.0772
 Quadrupole moment (field-independent basis, Debye-Ang):
   XX=            -23.3864   YY=            -22.9475   ZZ=            -21.9418
   XY=             -1.9836   XZ=             -0.0000   YZ=             -0.0000

  Exact polarizability:  30.954   4.169  29.946  -0.000   0.000  17.631
 Approx polarizability:  24.588   0.511  27.771   0.000   0.000  15.534

                      1                      2                      3
                     A"                     A'                     A"
 Frequencies --    355.9835               397.6347               527.4097
 Red. masses --      1.5385                 7.0449                 2.9748
 Frc consts  --      0.1149                 0.6563                 0.4875
 IR Inten    --     63.6477                 7.9420                24.6909

                      4                      5                      6
                     A'                     A'                     A'
 Frequencies --    713.1289               836.8938               969.9857
 Red. masses --     13.2490                12.4143                 9.8065
 Frc consts  --      3.9698                 5.1229                 5.4362
 IR Inten    --    215.2517                32.5250                13.0799

                      7                      8                      9
                     A'                     A'                     A'
 Frequencies --   1431.0505              1549.1231              3487.0137
 Red. masses --      1.3614                 5.3350                 1.0638
 Frc consts  --      1.6427                 7.5433                 7.6208
 IR Inten    --     79.2027               146.4793                42.8418

 - Thermochemistry -
 -------------------
 Temperature   298.150 Kelvin.  Pressure   1.00000 Atm.
 Atom     1 has atomic number  1 and mass   1.00783

 Molecular mass:    62.99564 amu.
 Principal axes and moments of inertia in atomic units:
                           1         2         3
     Eigenvalues --    84.80006 222.77705 307.57711
           X            0.79519  -0.60636   0.00000
           Y            0.60636   0.79519   0.00000
           Z            0.00000  -0.00000   1.00000
 This molecule is an asymmetric top.
 Rotational symmetry number  1.
 Rotational temperatures (Kelvin)      1.02139     0.38879     0.28160
 Rotational constants (GHZ):          21.28231     8.10111     5.86761
 Zero-point vibrational energy      61417.6 (Joules/Mol)
                                   14.67916 (Kcal/Mol)
 Warning -- explicit consideration of   3 degrees of freedom as
           vibrations may cause significant error
 Vibrational temperatures:    512.18   572.11   758.82  1026.03  1204.10
          (Kelvin)           1395.59  2058.96  2228.84  5017.03

 Zero-point correction=                           0.023393 (Hartree/Particle)
 Thermal correction to Energy=                    0.027324
 Thermal correction to Enthalpy=                  0.028268
 Thermal correction to Gibbs Free Energy=        -0.002579
 Sum of electronic and zero-point Energies=           -280.431827
 Sum of electronic and thermal Energies=              -280.427896
 Sum of electronic and thermal Enthalpies=            -280.426952
 Sum of electronic and thermal Free Energies=         -280.457799

                     E (Thermal)             CV                S
                      KCal/Mol        Cal/Mol-Kelvin    Cal/Mol-Kelvin
 Total                   17.146             12.155             64.924
 Electronic               0.000              0.000              0.000
 Translational            0.889              2.981             38.341
 Rotational               0.889              2.981             23.278
 Vibrational             15.369              6.193              3.305
 Vibration     1          0.731              1.563              1.140
 Vibration     2          0.764              1.475              0.971
 Vibration     3          0.882              1.189              0.593

                       ! Non-Optimized Parameters !

 1\1\GINC-N2398\Freq\RMP2-FC\Aug-CC-pVTZ\H1N1O3\CGAVINH\06-Mar-2022\1\\
 #p freq mp2/aug-cc-pvtz density=current\\title\\0,1\H\O,1,r1\O,2,r2,1,
 a1\N,3,r3,2,a2,1,d1,0\O,4,r4,3,a3,2,d2,0\\r1=0.98537664\r2=1.42673666\
 r3=1.38110764\r4=1.19899356\a1=100.6355057\a2=113.13777052\a3=114.3339
 2022\d1=0.\d2=0.\\Version=ES64L-G16RevB.01\State=1-A'\HF=-279.5056861\
 MP2=-280.45522\RMSD=4.732e-09\RMSF=1.839e-03\ZeroPoint=0.0233927\Therm
 al=0.0273241\Dipole=-0.1125908,0.,-0.4085755\DipoleDeriv=0.3170178,0.,
 0.0380032,0.,0.2980462,0.,-0.0242501,0.,0.2002656,-0.5285851,0.,0.2829

 Normal termination of Gaussian 16 at Sun Mar  6 19:14:24 2022.
