 Gaussian 16, Revision B.01,
 Gaussian 16:  ES64L-G16RevB.01 20-Dec-2017

 ---------------------------------------
 #p freq mp2/aug-cc-pvtz density=current
 ---------------------------------------

 -----
 title
 -----
 Symbolic Z-matrix:
 Charge =  0 Multiplicity = 1

                         Standard orientation:
 ---------------------------------------------------------------------
 Center     Atomic      Atomic             Coordinates (Angstroms)
 Number     Number       Type             X           Y           Z
 ---------------------------------------------------------------------
      1          1           0        1.110713   -0.590814    0.000000
      2          8           0        1.315799    0.365167   -0.000000
      3          8           0       -0.000000    0.916755   -0.000000
      4          7           0       -0.991498   -0.044698    0.000000
      5          8           0       -0.587078   -1.168959    0.000000
 ---------------------------------------------------------------------

 SCF Done:  E(RHF) =  -279.506840315     A.U. after   14 cycles
 E2 =    -0.9483531136D+00 EUMP2 =    -0.28045519342842D+03
 E2 =    -0.9483531136D+00 EUMP2 =    -0.28045519342842D+03

 The electronic state is 1-A'.
 Alpha  occ. eigenvalues --  -20.71992 -20.68718 -20.66802 -15.82603  -1.64443
 Alpha  occ. eigenvalues --   -1.50581  -1.29518  -0.96082  -0.83506  -0.75902
 Alpha  occ. eigenvalues --   -0.74010  -0.63909  -0.61897  -0.61855  -0.50463
 Alpha  occ. eigenvalues --   -0.49784
 Alpha virt. eigenvalues --    0.03513   0.06029   0.09507   0.10040   0.11966
 Alpha virt. eigenvalues --    0.12258   0.14946   0.15210   0.17740   0.18031
 Alpha virt. eigenvalues --    0.18976   0.21111   0.21678   0.24228   0.24633

 Mulliken charges:
               1
     1  H    0.273307
     2  O   -0.268970
     3  O    0.037878
     4  N    0.153615
     5  O   -0.195830
 Sum of Mulliken charges =  -0.00000

 Dipole moment (field-independent basis, Debye):
    X=              0.0541    Y=             -1.0870    Z=              0.0000  Tot=              1.0884
 Quadrupole moment (field-independent basis, Debye-Ang):
   XX=            -23.3676   YY=            -22.9529   ZZ=            -21.9238
   XY=             -1.9672   XZ=              0.0000   YZ=              0.0000

  Exact polarizability:  30.874   4.143  29.803  -0.000  -0.000  17.601
 Approx polarizability:  24.522   0.506  27.595  -0.000  -0.000  15.503

                      1                      2                      3
                     A"                     A'                     A"
 Frequencies --    208.3053               394.9467               506.7570
 Red. masses --      1.2673                 6.9691                 5.0706
 Frc consts  --      0.0324                 0.6405                 0.7672
 IR Inten    --     77.8293                 7.8888                11.2196

                      4                      5                      6
                     A'                     A'                     A'
 Frequencies --    710.6515               837.3198               968.0370
 Red. masses --     13.1418                12.4886                 9.2479
 Frc consts  --      3.9104                 5.1588                 5.1060
 IR Inten    --    218.1236                30.8157                14.0291

                      7                      8                      9
                     A'                     A'                     A'
 Frequencies --   1420.1360              1568.3419              3585.4990
 Red. masses --      1.2877                 7.2579                 1.0640
 Frc consts  --      1.5301                10.5182                 8.0594
 IR Inten    --     78.0279               148.9036                41.8196

 - Thermochemistry -
 -------------------
 Temperature   298.150 Kelvin.  Pressure   1.00000 Atm.
 Atom     1 has atomic number  1 and mass   1.00783

 Molecular mass:    62.99564 amu.
 Principal axes and moments of inertia in atomic units:
                           1         2         3
     Eigenvalues --    84.48623 222.63071 307.11693
           X            0.79641  -0.60475   0.00000
           Y            0.60475   0.79641   0.00000
           Z            0.00000  -0.00000   1.00000
 This molecule is an asymmetric top.
 Rotational symmetry number  1.
 Rotational temperatures (Kelvin)      1.02518     0.38905     0.28202
 Rotational constants (GHZ):          21.36137     8.10643     5.87640
 Zero-point vibrational energy      61009.5 (Joules/Mol)
                                   14.58162 (Kcal/Mol)
 Warning -- explicit consideration of   3 degrees of freedom as
           vibrations may cause significant error
 Vibrational temperatures:    299.70   568.24   729.11  1022.47  1204.72
          (Kelvin)           1392.79  2043.26  2256.49  5158.73

 Zero-point correction=                           0.023237 (Hartree/Particle)
 Thermal correction to Energy=                    0.027380
 Thermal correction to Enthalpy=                  0.028324
 Thermal correction to Gibbs Free Energy=        -0.002986
 Sum of electronic and zero-point Energies=           -280.431956
 Sum of electronic and thermal Energies=              -280.427813
 Sum of electronic and thermal Enthalpies=            -280.426869
 Sum of electronic and thermal Free Energies=         -280.458180

                     E (Thermal)             CV                S
                      KCal/Mol        Cal/Mol-Kelvin    Cal/Mol-Kelvin
 Total                   17.181             12.477             65.899
 Electronic               0.000              0.000              0.000
 Translational            0.889              2.981             38.341
 Rotational               0.889              2.981             23.273
 Vibrational             15.404              6.515              4.286
 Vibration     1          0.642              1.828              2.058
 Vibration     2          0.762              1.481              0.981
 Vibration     3          0.862              1.235              0.641

                       ! Non-Optimized Parameters !

 1\1\GINC-N2174\Freq\RMP2-FC\Aug-CC-pVTZ\H1N1O3\CGAVINH\06-Mar-2022\1\\
 #p freq mp2/aug-cc-pvtz density=current\\title\\0,1\H\O,1,r1\O,2,r2,1,
 a1\N,3,r3,2,a2,1,d1,0\O,4,r4,3,a3,2,d2,0\\r1=0.97773208\r2=1.42673666\
 r3=1.38110764\r4=1.19478846\a1=100.6355057\a2=113.13777052\a3=114.3339
 2022\d1=0.\d2=0.\\Version=ES64L-G16RevB.01\State=1-A'\HF=-279.5068403\
 MP2=-280.4551934\RMSD=4.317e-09\RMSF=2.357e-03\ZeroPoint=0.0232373\The
 rmal=0.0273801\Dipole=-0.1105027,0.,-0.413694\DipoleDeriv=0.3139739,0.
 ,0.0389607,0.,0.2992584,0.,-0.0206549,0.,0.19814,-0.527622,0.,0.281545

 Normal termination of Gaussian 16 at Sun Mar  6 18:54:51 2022.
