 Gaussian 16, Revision B.01,
 Gaussian 16:  ES64L-G16RevB.01 20-Dec-2017

 ---------------------------------------
 #p freq mp2/aug-cc-pvtz density=current
 ---------------------------------------

 -----
 title
 -----
 Symbolic Z-matrix:
 Charge =  0 Multiplicity = 1

                         Standard orientation:
 ---------------------------------------------------------------------
 Center     Atomic      Atomic             Coordinates (Angstroms)
 Number     Number       Type             X           Y           Z
 ---------------------------------------------------------------------
      1          1           0        1.099758   -0.606950    0.000000
      2          8           0        1.312377    0.355215    0.000000
      3          8           0        0.000000    0.914896    0.000000
      4          7           0       -0.997400   -0.040433    0.000000
      5          8           0       -0.577123   -1.158863    0.000000
 ---------------------------------------------------------------------

 SCF Done:  E(RHF) =  -279.506223782     A.U. after   14 cycles
 E2 =    -0.9488798317D+00 EUMP2 =    -0.28045510361396D+03
 E2 =    -0.9488798317D+00 EUMP2 =    -0.28045510361396D+03

 The electronic state is 1-A'.
 Alpha  occ. eigenvalues --  -20.71861 -20.68666 -20.66750 -15.82677  -1.64579
 Alpha  occ. eigenvalues --   -1.50350  -1.29327  -0.95998  -0.83628  -0.75917
 Alpha  occ. eigenvalues --   -0.74019  -0.63569  -0.61768  -0.61759  -0.50667
 Alpha  occ. eigenvalues --   -0.49686
 Alpha virt. eigenvalues --    0.03517   0.05957   0.09512   0.10019   0.11969
 Alpha virt. eigenvalues --    0.12254   0.14967   0.15225   0.17735   0.18031
 Alpha virt. eigenvalues --    0.19001   0.21091   0.21667   0.24243   0.24636

 Mulliken charges:
               1
     1  H    0.277200
     2  O   -0.274269
     3  O    0.038066
     4  N    0.153711
     5  O   -0.194707
 Sum of Mulliken charges =  -0.00000

 Dipole moment (field-independent basis, Debye):
    X=              0.0237    Y=             -1.0926    Z=              0.0000  Tot=              1.0929
 Quadrupole moment (field-independent basis, Debye-Ang):
   XX=            -23.3536   YY=            -22.9334   ZZ=            -21.9290
   XY=             -1.9848   XZ=              0.0000   YZ=              0.0000

  Exact polarizability:  30.887   4.053  29.707   0.000   0.000  17.596
 Approx polarizability:  24.622   0.398  27.509  -0.000  -0.000  15.503

                      1                      2                      3
                     A"                     A'                     A"
 Frequencies --    355.7197               414.3550               530.3352
 Red. masses --      1.5451                 6.9907                 2.9472
 Frc consts  --      0.1152                 0.7072                 0.4884
 IR Inten    --     62.9270                 7.9476                25.1809

                      4                      5                      6
                     A'                     A'                     A'
 Frequencies --    719.3462               834.4248               974.3845
 Red. masses --     13.5208                12.3602                 9.5401
 Frc consts  --      4.1222                 5.0705                 5.3366
 IR Inten    --    218.9435                26.8687                11.9033

                      7                      8                      9
                     A'                     A'                     A'
 Frequencies --   1427.5072              1571.8035              3484.9698
 Red. masses --      1.3089                 6.4616                 1.0634
 Frc consts  --      1.5715                 9.4057                 7.6094
 IR Inten    --     81.1379               147.9671                44.7328

 - Thermochemistry -
 -------------------
 Temperature   298.150 Kelvin.  Pressure   1.00000 Atm.
 Atom     1 has atomic number  1 and mass   1.00783

 Molecular mass:    62.99564 amu.
 Principal axes and moments of inertia in atomic units:
                           1         2         3
     Eigenvalues --    85.00615 219.54019 304.54634
           X            0.80151  -0.59798   0.00000
           Y            0.59798   0.80151   0.00000
           Z            0.00000   0.00000   1.00000
 This molecule is an asymmetric top.
 Rotational symmetry number  1.
 Rotational temperatures (Kelvin)      1.01891     0.39452     0.28440
 Rotational constants (GHZ):          21.23071     8.22055     5.92600
 Zero-point vibrational energy      61684.5 (Joules/Mol)
                                   14.74295 (Kcal/Mol)
 Warning -- explicit consideration of   3 degrees of freedom as
           vibrations may cause significant error
 Vibrational temperatures:    511.80   596.16   763.03  1034.98  1200.55
          (Kelvin)           1401.92  2053.86  2261.47  5014.09

 Zero-point correction=                           0.023494 (Hartree/Particle)
 Thermal correction to Energy=                    0.027405
 Thermal correction to Enthalpy=                  0.028349
 Thermal correction to Gibbs Free Energy=        -0.002453
 Sum of electronic and zero-point Energies=           -280.431609
 Sum of electronic and thermal Energies=              -280.427698
 Sum of electronic and thermal Enthalpies=            -280.426754
 Sum of electronic and thermal Free Energies=         -280.457556

                     E (Thermal)             CV                S
                      KCal/Mol        Cal/Mol-Kelvin    Cal/Mol-Kelvin
 Total                   17.197             12.096             64.829
 Electronic               0.000              0.000              0.000
 Translational            0.889              2.981             38.341
 Rotational               0.889              2.981             23.256
 Vibrational             15.420              6.134              3.232
 Vibration     1          0.731              1.564              1.141
 Vibration     2          0.778              1.439              0.911
 Vibration     3          0.885              1.183              0.586

                       ! Non-Optimized Parameters !

 1\1\GINC-N2219\Freq\RMP2-FC\Aug-CC-pVTZ\H1N1O3\CGAVINH\06-Mar-2022\1\\
 #p freq mp2/aug-cc-pvtz density=current\\title\\0,1\H\O,1,r1\O,2,r2,1,
 a1\N,3,r3,2,a2,1,d1,0\O,4,r4,3,a3,2,d2,0\\r1=0.98537664\r2=1.42673666\
 r3=1.38110764\r4=1.19478846\a1=100.6355057\a2=113.13777052\a3=113.1708
 3426\d1=0.\d2=0.\\Version=ES64L-G16RevB.01\State=1-A'\HF=-279.5062238\
 MP2=-280.4551036\RMSD=4.535e-09\RMSF=2.569e-03\ZeroPoint=0.0234944\The
 rmal=0.0274053\Dipole=-0.1018648,0.,-0.4177287\DipoleDeriv=0.3197793,0
 .,0.0362384,0.,0.2976207,0.,-0.0276168,0.,0.2044428,-0.5263254,0.,0.28

 Normal termination of Gaussian 16 at Sun Mar  6 19:47:27 2022.
