 Gaussian 16, Revision B.01,
 Gaussian 16:  ES64L-G16RevB.01 20-Dec-2017

 ---------------------------------------
 #p freq mp2/aug-cc-pvtz density=current
 ---------------------------------------

 -----
 title
 -----
 Symbolic Z-matrix:
 Charge =  0 Multiplicity = 1

                         Standard orientation:
 ---------------------------------------------------------------------
 Center     Atomic      Atomic             Coordinates (Angstroms)
 Number     Number       Type             X           Y           Z
 ---------------------------------------------------------------------
      1          1           0        1.081708   -0.590463    0.000000
      2          8           0        1.316373    0.366564    0.000000
      3          8           0       -0.000000    0.916780    0.000000
      4          7           0       -0.990495   -0.045705    0.000000
      5          8           0       -0.584904   -1.169544    0.000000
 ---------------------------------------------------------------------

 SCF Done:  E(RHF) =  -279.505936520     A.U. after   14 cycles
 E2 =    -0.9491890887D+00 EUMP2 =    -0.28045512560831D+03
 E2 =    -0.9491890887D+00 EUMP2 =    -0.28045512560831D+03

 The electronic state is 1-A'.
 Alpha  occ. eigenvalues --  -20.71962 -20.68832 -20.66864 -15.82689  -1.64570
 Alpha  occ. eigenvalues --   -1.50615  -1.29389  -0.96033  -0.83624  -0.75961
 Alpha  occ. eigenvalues --   -0.74064  -0.63803  -0.61912  -0.61883  -0.50583
 Alpha  occ. eigenvalues --   -0.49769
 Alpha virt. eigenvalues --    0.03539   0.05951   0.09502   0.10030   0.11938
 Alpha virt. eigenvalues --    0.12261   0.14931   0.15293   0.17737   0.17978
 Alpha virt. eigenvalues --    0.18963   0.21082   0.21696   0.24228   0.24631

 Mulliken charges:
               1
     1  H    0.272933
     2  O   -0.274955
     3  O    0.038616
     4  N    0.156399
     5  O   -0.192993
 Sum of Mulliken charges =  -0.00000

 Dipole moment (field-independent basis, Debye):
    X=              0.0096    Y=             -1.0790    Z=              0.0000  Tot=              1.0790
 Quadrupole moment (field-independent basis, Debye-Ang):
   XX=            -23.4439   YY=            -22.9489   ZZ=            -21.9267
   XY=             -1.8972   XZ=              0.0000   YZ=              0.0000

  Exact polarizability:  30.901   4.214  29.824   0.000   0.000  17.590
 Approx polarizability:  24.612   0.599  27.618  -0.000  -0.000  15.497

                      1                      2                      3
                     A"                     A'                     A"
 Frequencies --    371.6017               397.9933               521.5838
 Red. masses --      1.5519                 7.2133                 2.9088
 Frc consts  --      0.1263                 0.6732                 0.4662
 IR Inten    --     61.1245                 7.9167                24.8394

                      4                      5                      6
                     A'                     A'                     A'
 Frequencies --    712.9383               840.2141               973.6630
 Red. masses --     13.4182                13.1080                 9.7961
 Frc consts  --      4.0184                 5.4522                 5.4717
 IR Inten    --    215.6848                31.6796                12.6905

                      7                      8                      9
                     A'                     A'                     A'
 Frequencies --   1452.6500              1576.1549              3477.1004
 Red. masses --      1.3643                 5.0511                 1.0636
 Frc consts  --      1.6963                 7.3932                 7.5762
 IR Inten    --     81.8186               150.4206                45.3950

 - Thermochemistry -
 -------------------
 Temperature   298.150 Kelvin.  Pressure   1.00000 Atm.
 Atom     1 has atomic number  1 and mass   1.00783

 Molecular mass:    62.99564 amu.
 Principal axes and moments of inertia in atomic units:
                           1         2         3
     Eigenvalues --    84.33811 222.53726 306.87537
           X            0.79518  -0.60637   0.00000
           Y            0.60637   0.79518   0.00000
           Z            0.00000   0.00000   1.00000
 This molecule is an asymmetric top.
 Rotational symmetry number  1.
 Rotational temperatures (Kelvin)      1.02698     0.38921     0.28224
 Rotational constants (GHZ):          21.39888     8.10984     5.88102
 Zero-point vibrational energy      61750.6 (Joules/Mol)
                                   14.75876 (Kcal/Mol)
 Warning -- explicit consideration of   3 degrees of freedom as
           vibrations may cause significant error
 Vibrational temperatures:    534.65   572.62   750.44  1025.76  1208.88
          (Kelvin)           1400.88  2090.04  2267.74  5002.77

 Zero-point correction=                           0.023520 (Hartree/Particle)
 Thermal correction to Energy=                    0.027436
 Thermal correction to Enthalpy=                  0.028380
 Thermal correction to Gibbs Free Energy=        -0.002435
 Sum of electronic and zero-point Energies=           -280.431606
 Sum of electronic and thermal Energies=              -280.427690
 Sum of electronic and thermal Enthalpies=            -280.426746
 Sum of electronic and thermal Free Energies=         -280.457560

                     E (Thermal)             CV                S
                      KCal/Mol        Cal/Mol-Kelvin    Cal/Mol-Kelvin
 Total                   17.216             12.113             64.855
 Electronic               0.000              0.000              0.000
 Translational            0.889              2.981             38.341
 Rotational               0.889              2.981             23.270
 Vibrational             15.439              6.151              3.245
 Vibration     1          0.743              1.530              1.073
 Vibration     2          0.764              1.474              0.970
 Vibration     3          0.877              1.202              0.606

                       ! Non-Optimized Parameters !

 1\1\GINC-N2218\Freq\RMP2-FC\Aug-CC-pVTZ\H1N1O3\CGAVINH\06-Mar-2022\1\\
 #p freq mp2/aug-cc-pvtz density=current\\title\\0,1\H\O,1,r1\O,2,r2,1,
 a1\N,3,r3,2,a2,1,d1,0\O,4,r4,3,a3,2,d2,0\\r1=0.98537664\r2=1.42673666\
 r3=1.38110764\r4=1.19478846\a1=98.90666361\a2=113.13777052\a3=114.3339
 2022\d1=0.\d2=0.\\Version=ES64L-G16RevB.01\State=1-A'\HF=-279.5059365\
 MP2=-280.4551256\RMSD=4.488e-09\RMSF=1.637e-03\ZeroPoint=0.0235196\The
 rmal=0.0274356\Dipole=-0.1047608,0.,-0.4113881\DipoleDeriv=0.3203299,0
 .,0.0310116,0.,0.2940181,0.,-0.0392368,0.,0.2043544,-0.5256431,0.,0.29

 Normal termination of Gaussian 16 at Sun Mar  6 19:30:11 2022.
