 Gaussian 16, Revision B.01,
 Gaussian 16:  ES64L-G16RevB.01 20-Dec-2017

 ---------------------------------------
 #p freq mp2/aug-cc-pvtz density=current
 ---------------------------------------

 -----
 title
 -----
 Symbolic Z-matrix:
 Charge =  0 Multiplicity = 1

                         Standard orientation:
 ---------------------------------------------------------------------
 Center     Atomic      Atomic             Coordinates (Angstroms)
 Number     Number       Type             X           Y           Z
 ---------------------------------------------------------------------
      1          1           0        1.104818   -0.603742    0.000000
      2          8           0        1.314233    0.359125    0.000000
      3          8           0        0.000000    0.914434    0.000000
      4          7           0       -0.988572   -0.038768    0.000000
      5          8           0       -0.587335   -1.164170    0.000000
 ---------------------------------------------------------------------

 SCF Done:  E(RHF) =  -279.507070542     A.U. after   14 cycles
 E2 =    -0.9481498519D+00 EUMP2 =    -0.28045522039389D+03
 E2 =    -0.9481498519D+00 EUMP2 =    -0.28045522039389D+03

 The electronic state is 1-A'.
 Alpha  occ. eigenvalues --  -20.72111 -20.68543 -20.66873 -15.82506  -1.64628
 Alpha  occ. eigenvalues --   -1.50517  -1.29660  -0.95994  -0.83556  -0.75991
 Alpha  occ. eigenvalues --   -0.74178  -0.63764  -0.61850  -0.61765  -0.50479
 Alpha  occ. eigenvalues --   -0.49828
 Alpha virt. eigenvalues --    0.03503   0.06142   0.09514   0.10041   0.11971
 Alpha virt. eigenvalues --    0.12277   0.14911   0.15187   0.17748   0.18047
 Alpha virt. eigenvalues --    0.18973   0.21108   0.21668   0.24264   0.24639

 Mulliken charges:
               1
     1  H    0.277992
     2  O   -0.275294
     3  O    0.044059
     4  N    0.151345
     5  O   -0.198101
 Sum of Mulliken charges =  -0.00000

 Dipole moment (field-independent basis, Debye):
    X=              0.0706    Y=             -1.0580    Z=              0.0000  Tot=              1.0603
 Quadrupole moment (field-independent basis, Debye-Ang):
   XX=            -23.4056   YY=            -22.9249   ZZ=            -21.9206
   XY=             -1.9907   XZ=              0.0000   YZ=              0.0000

  Exact polarizability:  30.881   4.085  29.740   0.000   0.000  17.593
 Approx polarizability:  24.499   0.483  27.539  -0.000  -0.000  15.502

                      1                      2                      3
                     A"                     A'                     A"
 Frequencies --    357.1517               403.5028               525.2172
 Red. masses --      1.5782                 7.0055                 2.8383
 Frc consts  --      0.1186                 0.6720                 0.4613
 IR Inten    --     62.2513                 7.5162                26.1875

                      4                      5                      6
                     A'                     A'                     A'
 Frequencies --    739.8515               837.5105               973.0666
 Red. masses --     13.3271                12.5005                 9.6538
 Frc consts  --      4.2981                 5.1660                 5.3856
 IR Inten    --    208.6108                32.7084                13.5173

                      7                      8                      9
                     A'                     A'                     A'
 Frequencies --   1433.2778              1574.4842              3486.6173
 Red. masses --      1.3011                 6.5901                 1.0636
 Frc consts  --      1.5748                 9.6254                 7.6183
 IR Inten    --     80.5221               150.4034                44.1300

 - Thermochemistry -
 -------------------
 Temperature   298.150 Kelvin.  Pressure   1.00000 Atm.
 Atom     1 has atomic number  1 and mass   1.00783

 Molecular mass:    62.99564 amu.
 Principal axes and moments of inertia in atomic units:
                           1         2         3
     Eigenvalues --    84.51537 220.94658 305.46194
           X            0.79873  -0.60169   0.00000
           Y            0.60169   0.79873   0.00000
           Z            0.00000   0.00000   1.00000
 This molecule is an asymmetric top.
 Rotational symmetry number  1.
 Rotational temperatures (Kelvin)      1.02483     0.39201     0.28355
 Rotational constants (GHZ):          21.35400     8.16822     5.90824
 Zero-point vibrational energy      61791.2 (Joules/Mol)
                                   14.76845 (Kcal/Mol)
 Warning -- explicit consideration of   3 degrees of freedom as
           vibrations may cause significant error
 Vibrational temperatures:    513.86   580.55   755.67  1064.48  1204.99
          (Kelvin)           1400.03  2062.17  2265.33  5016.46

 Zero-point correction=                           0.023535 (Hartree/Particle)
 Thermal correction to Energy=                    0.027450
 Thermal correction to Enthalpy=                  0.028394
 Thermal correction to Gibbs Free Energy=        -0.002419
 Sum of electronic and zero-point Energies=           -280.431685
 Sum of electronic and thermal Energies=              -280.427770
 Sum of electronic and thermal Enthalpies=            -280.426826
 Sum of electronic and thermal Free Energies=         -280.457640

                     E (Thermal)             CV                S
                      KCal/Mol        Cal/Mol-Kelvin    Cal/Mol-Kelvin
 Total                   17.225             12.084             64.852
 Electronic               0.000              0.000              0.000
 Translational            0.889              2.981             38.341
 Rotational               0.889              2.981             23.260
 Vibrational             15.448              6.123              3.252
 Vibration     1          0.732              1.561              1.134
 Vibration     2          0.769              1.463              0.950
 Vibration     3          0.880              1.194              0.598

                       ! Non-Optimized Parameters !

 1\1\GINC-N2398\Freq\RMP2-FC\Aug-CC-pVTZ\H1N1O3\CGAVINH\06-Mar-2022\1\\
 #p freq mp2/aug-cc-pvtz density=current\\title\\0,1\H\O,1,r1\O,2,r2,1,
 a1\N,3,r3,2,a2,1,d1,0\O,4,r4,3,a3,2,d2,0\\r1=0.98537664\r2=1.42673666\
 r3=1.37326941\r4=1.19478846\a1=100.6355057\a2=113.13777052\a3=114.3339
 2022\d1=0.\d2=0.\\Version=ES64L-G16RevB.01\State=1-A'\HF=-279.5070705\
 MP2=-280.4552204\RMSD=4.226e-09\RMSF=1.088e-03\ZeroPoint=0.023535\Ther
 mal=0.0274499\Dipole=-0.1156045,0.,-0.4008303\DipoleDeriv=0.3188231,0.
 ,0.0372588,0.,0.2981655,0.,-0.0254565,0.,0.2031831,-0.5308486,0.,0.282

 Normal termination of Gaussian 16 at Sun Mar  6 19:10:11 2022.
