 Gaussian 16, Revision B.01,
 Gaussian 16:  ES64L-G16RevB.01 20-Dec-2017

 ---------------------------------------
 #p freq mp2/aug-cc-pvtz density=current
 ---------------------------------------

 -----
 title
 -----
 Symbolic Z-matrix:
 Charge =  0 Multiplicity = 1

                         Standard orientation:
 ---------------------------------------------------------------------
 Center     Atomic      Atomic             Coordinates (Angstroms)
 Number     Number       Type             X           Y           Z
 ---------------------------------------------------------------------
      1          1           0        1.548224    1.678944    0.000000
      2          8           0        1.454061    0.723239    0.000000
      3          8           0       -0.000000    0.673278    0.000000
      4          7           0       -0.261576   -0.761863    0.000000
      5          8           0       -1.418710   -0.939755    0.000000
 ---------------------------------------------------------------------

 SCF Done:  E(RHF) =  -279.502030603     A.U. after   14 cycles
 E2 =    -0.9446344760D+00 EUMP2 =    -0.28044666507913D+03
 E2 =    -0.9446344760D+00 EUMP2 =    -0.28044666507913D+03

 The electronic state is 1-A'.
 Alpha  occ. eigenvalues --  -20.69112 -20.68446 -20.65930 -15.81301  -1.62423
 Alpha  occ. eigenvalues --   -1.49683  -1.25612  -0.94827  -0.77352  -0.75987
 Alpha  occ. eigenvalues --   -0.71200  -0.68069  -0.62072  -0.58984  -0.48552
 Alpha  occ. eigenvalues --   -0.47274
 Alpha virt. eigenvalues --    0.02979   0.07154   0.08591   0.10170   0.13389
 Alpha virt. eigenvalues --    0.13394   0.14443   0.15486   0.17813   0.19415
 Alpha virt. eigenvalues --    0.19978   0.20637   0.22078   0.23518   0.23730

 Mulliken charges:
               1
     1  H    0.242912
     2  O   -0.194253
     3  O   -0.147721
     4  N    0.292327
     5  O   -0.193265
 Sum of Mulliken charges =  -0.00000

 Dipole moment (field-independent basis, Debye):
    X=              0.5037    Y=              1.3497    Z=              0.0000  Tot=              1.4406
 Quadrupole moment (field-independent basis, Debye-Ang):
   XX=            -22.4652   YY=            -18.6492   ZZ=            -21.9994
   XY=              3.2389   XZ=             -0.0000   YZ=              0.0000

  Exact polarizability:  33.961   9.431  30.133   0.000  -0.000  17.906
 Approx polarizability:  28.984   5.094  23.431  -0.000  -0.000  15.508

 ******    1 imaginary frequencies (negative Signs) ******

                      1                      2                      3
                     A"                     A"                     A'
 Frequencies --   -444.9265               228.3142               332.6261
 Red. masses --      1.1234                11.9456                 8.2272
 Frc consts  --      0.1310                 0.3669                 0.5363
 IR Inten    --    126.2818                 0.1735                 5.2970

                      4                      5                      6
                     A'                     A'                     A'
 Frequencies --    451.8007               782.0281               966.6816
 Red. masses --     12.3058                12.4890                15.5678
 Frc consts  --      1.4800                 4.5001                 8.5713
 IR Inten    --    199.1575               164.2319                24.6642

                      7                      8                      9
                     A'                     A'                     A'
 Frequencies --   1342.2210              1677.1558              3892.0584
 Red. masses --      1.1414                13.3960                 1.0675
 Frc consts  --      1.2115                22.2010                 9.5277
 IR Inten    --    154.4668               142.0904                83.5993

 - Thermochemistry -
 -------------------
 Temperature   298.150 Kelvin.  Pressure   1.00000 Atm.
 Atom     1 has atomic number  1 and mass   1.00783

 Molecular mass:    62.99564 amu.
 Principal axes and moments of inertia in atomic units:
                           1         2         3
     Eigenvalues --    32.81876 360.05273 392.87149
           X            0.81024  -0.58609   0.00000
           Y            0.58609   0.81024   0.00000
           Z            0.00000   0.00000   1.00000
 This molecule is an asymmetric top.
 Rotational symmetry number  1.
 Rotational temperatures (Kelvin)      2.63916     0.24056     0.22046
 Rotational constants (GHZ):          54.99115     5.01244     4.59372
    1 imaginary frequencies ignored.
 Zero-point vibrational energy      57856.7 (Joules/Mol)
                                   13.82808 (Kcal/Mol)
 Warning -- explicit consideration of   3 degrees of freedom as
           vibrations may cause significant error
 Vibrational temperatures:    328.49   478.57   650.04  1125.16  1390.84
          (Kelvin)           1931.16  2413.05  5599.80

 Zero-point correction=                           0.022036 (Hartree/Particle)
 Thermal correction to Energy=                    0.026167
 Thermal correction to Enthalpy=                  0.027111
 Thermal correction to Gibbs Free Energy=        -0.004097
 Sum of electronic and zero-point Energies=           -280.424629
 Sum of electronic and thermal Energies=              -280.420498
 Sum of electronic and thermal Enthalpies=            -280.419554
 Sum of electronic and thermal Free Energies=         -280.450762

                     E (Thermal)             CV                S
                      KCal/Mol        Cal/Mol-Kelvin    Cal/Mol-Kelvin
 Total                   16.420             11.991             65.684
 Electronic               0.000              0.000              0.000
 Translational            0.889              2.981             38.341
 Rotational               0.889              2.981             23.055
 Vibrational             14.643              6.029              4.288
 Vibration     1          0.651              1.798              1.892
 Vibration     2          0.715              1.610              1.247
 Vibration     3          0.810              1.357              0.790

                       ! Non-Optimized Parameters !

 1\1\GINC-N2109\Freq\RMP2-FC\Aug-CC-pVTZ\H1N1O3\CGAVINH\21-Feb-2022\1\\
 #p freq mp2/aug-cc-pvtz density=current\\title\\0,1\H\O,1,r1\O,2,r2,1,
 a1\N,3,r3,2,a2,1,d1,0\O,4,r4,3,a3,2,d2,0\\r1=0.96033223\r2=1.45491931\
 r3=1.45878406\r4=1.17072885\a1=97.59494903\a2=102.29752444\a3=109.0695
 5123\d1=180.\d2=180.\\Version=ES64L-G16RevB.01\State=1-A'\HF=-279.5020
 306\MP2=-280.4466651\RMSD=3.789e-09\RMSF=3.160e-03\ZeroPoint=0.0220365
 \Thermal=0.0261673\Dipole=-0.1451333,0.,-0.5478883\DipoleDeriv=0.26529
 48,0.,0.0485287,0.,0.3567637,0.,0.0838406,0.,0.276763,-0.3280974,0.,-0

 Normal termination of Gaussian 16 at Mon Feb 21 20:06:10 2022.
