 Gaussian 16, Revision B.01,
 Gaussian 16:  ES64L-G16RevB.01 20-Dec-2017

 ---------------------------------------
 #p freq mp2/aug-cc-pvtz density=current
 ---------------------------------------

 -----
 title
 -----
 Symbolic Z-matrix:
 Charge =  0 Multiplicity = 1

                         Standard orientation:
 ---------------------------------------------------------------------
 Center     Atomic      Atomic             Coordinates (Angstroms)
 Number     Number       Type             X           Y           Z
 ---------------------------------------------------------------------
      1          1           0        1.075150   -0.612201    0.000000
      2          8           0        1.303210    0.346421    0.000000
      3          8           0        0.000000    0.927128    0.000000
      4          7           0       -0.985893   -0.040070    0.000000
      5          8           0       -0.574947   -1.161963    0.000000
 ---------------------------------------------------------------------

 SCF Done:  E(RHF) =  -279.505839755     A.U. after   14 cycles
 E2 =    -0.9491781556D+00 EUMP2 =    -0.28045501791058D+03
 E2 =    -0.9491781556D+00 EUMP2 =    -0.28045501791058D+03

 The electronic state is 1-A'.
 Alpha  occ. eigenvalues --  -20.72172 -20.68822 -20.66598 -15.82603  -1.64665
 Alpha  occ. eigenvalues --   -1.50491  -1.29370  -0.96062  -0.83805  -0.75976
 Alpha  occ. eigenvalues --   -0.74125  -0.63554  -0.61959  -0.61781  -0.50579
 Alpha  occ. eigenvalues --   -0.49797
 Alpha virt. eigenvalues --    0.03538   0.05951   0.09499   0.09985   0.11969
 Alpha virt. eigenvalues --    0.12279   0.14992   0.15301   0.17736   0.17989
 Alpha virt. eigenvalues --    0.18959   0.21096   0.21672   0.24439   0.24617

 Mulliken charges:
               1
     1  H    0.272356
     2  O   -0.276315
     3  O    0.037564
     4  N    0.157167
     5  O   -0.190771
 Sum of Mulliken charges =  -0.00000

 Dipole moment (field-independent basis, Debye):
    X=              0.0004    Y=             -1.0791    Z=              0.0000  Tot=              1.0791
 Quadrupole moment (field-independent basis, Debye-Ang):
   XX=            -23.5085   YY=            -22.8313   ZZ=            -21.9274
   XY=             -1.9381   XZ=              0.0000   YZ=              0.0000

  Exact polarizability:  30.615   3.994  29.746   0.000   0.000  17.588
 Approx polarizability:  24.369   0.382  27.679  -0.000  -0.000  15.496

                      1                      2                      3
                     A"                     A'                     A"
 Frequencies --    351.2530               432.4748               530.9643
 Red. masses --      1.5633                 7.1643                 2.8717
 Frc consts  --      0.1136                 0.7895                 0.4770
 IR Inten    --     62.0220                 7.8837                24.8869

                      4                      5                      6
                     A'                     A'                     A'
 Frequencies --    708.9392               839.4097               970.3627
 Red. masses --     13.5001                12.6092                10.0478
 Frc consts  --      3.9976                 5.2346                 5.5743
 IR Inten    --    212.4050                33.4667                12.5440

                      7                      8                      9
                     A'                     A'                     A'
 Frequencies --   1438.9997              1577.1163              3474.7844
 Red. masses --      1.3412                 5.4363                 1.0635
 Frc consts  --      1.6363                 7.9667                 7.5655
 IR Inten    --     82.4252               147.2334                48.7932

 - Thermochemistry -
 -------------------
 Temperature   298.150 Kelvin.  Pressure   1.00000 Atm.
 Atom     1 has atomic number  1 and mass   1.00783

 Molecular mass:    62.99564 amu.
 Principal axes and moments of inertia in atomic units:
                           1         2         3
     Eigenvalues --    85.69783 217.37171 303.06954
           X            0.79343  -0.60867   0.00000
           Y            0.60867   0.79343   0.00000
           Z            0.00000   0.00000   1.00000
 This molecule is an asymmetric top.
 Rotational symmetry number  1.
 Rotational temperatures (Kelvin)      1.01069     0.39846     0.28579
 Rotational constants (GHZ):          21.05936     8.30256     5.95487
 Zero-point vibrational energy      61753.1 (Joules/Mol)
                                   14.75933 (Kcal/Mol)
 Warning -- explicit consideration of   3 degrees of freedom as
           vibrations may cause significant error
 Vibrational temperatures:    505.37   622.23   763.94  1020.01  1207.72
          (Kelvin)           1396.14  2070.40  2269.12  4999.44

 Zero-point correction=                           0.023520 (Hartree/Particle)
 Thermal correction to Energy=                    0.027422
 Thermal correction to Enthalpy=                  0.028366
 Thermal correction to Gibbs Free Energy=        -0.002417
 Sum of electronic and zero-point Energies=           -280.431497
 Sum of electronic and thermal Energies=              -280.427596
 Sum of electronic and thermal Enthalpies=            -280.426651
 Sum of electronic and thermal Free Energies=         -280.457435

                     E (Thermal)             CV                S
                      KCal/Mol        Cal/Mol-Kelvin    Cal/Mol-Kelvin
 Total                   17.208             12.076             64.789
 Electronic               0.000              0.000              0.000
 Translational            0.889              2.981             38.341
 Rotational               0.889              2.981             23.250
 Vibrational             15.430              6.114              3.199
 Vibration     1          0.728              1.573              1.161
 Vibration     2          0.793              1.399              0.851
 Vibration     3          0.886              1.181              0.585

                       ! Non-Optimized Parameters !

 1\1\GINC-N2110\Freq\RMP2-FC\Aug-CC-pVTZ\H1N1O3\CGAVINH\06-Mar-2022\1\\
 #p freq mp2/aug-cc-pvtz density=current\\title\\0,1\H\O,1,r1\O,2,r2,1,
 a1\N,3,r3,2,a2,1,d1,0\O,4,r4,3,a3,2,d2,0\\r1=0.98537664\r2=1.42673666\
 r3=1.38110764\r4=1.19478846\a1=100.6355057\a2=111.53078939\a3=114.3339
 2022\d1=0.\d2=0.\\Version=ES64L-G16RevB.01\State=1-A'\HF=-279.5058398\
 MP2=-280.4550179\RMSD=4.744e-09\RMSF=2.924e-03\ZeroPoint=0.0235205\The
 rmal=0.0274223\Dipole=-0.0984234,0.,-0.4129662\DipoleDeriv=0.3211619,0
 .,0.0314205,0.,0.2953437,0.,-0.0354735,0.,0.2127182,-0.5148301,0.,0.28

 Normal termination of Gaussian 16 at Sun Mar  6 19:40:04 2022.
