 Gaussian 16, Revision B.01,
 Gaussian 16:  ES64L-G16RevB.01 20-Dec-2017

 ---------------------------------------
 #p freq mp2/aug-cc-pvtz density=current
 ---------------------------------------

 -----
 title
 -----
 Symbolic Z-matrix:
 Charge =  0 Multiplicity = 1

                         Standard orientation:
 ---------------------------------------------------------------------
 Center     Atomic      Atomic             Coordinates (Angstroms)
 Number     Number       Type             X           Y           Z
 ---------------------------------------------------------------------
      1          1           0        1.563739    1.684769   -0.000000
      2          8           0        1.454095    0.722016   -0.000000
      3          8           0       -0.000000    0.673055    0.000000
      4          7           0       -0.262563   -0.761905   -0.000000
      5          8           0       -1.419820   -0.939001    0.000000
 ---------------------------------------------------------------------

 SCF Done:  E(RHF) =  -279.501773747     A.U. after   14 cycles
 E2 =    -0.9449365235D+00 EUMP2 =    -0.28044671027076D+03
 E2 =    -0.9449365235D+00 EUMP2 =    -0.28044671027076D+03

 The electronic state is 1-A'.
 Alpha  occ. eigenvalues --  -20.69099 -20.68432 -20.65964 -15.81286  -1.62400
 Alpha  occ. eigenvalues --   -1.49524  -1.25453  -0.94804  -0.77238  -0.75971
 Alpha  occ. eigenvalues --   -0.71171  -0.67958  -0.62031  -0.58864  -0.48512
 Alpha  occ. eigenvalues --   -0.47250
 Alpha virt. eigenvalues --    0.02954   0.07170   0.08595   0.10175   0.13388
 Alpha virt. eigenvalues --    0.13400   0.14408   0.15449   0.17828   0.19426
 Alpha virt. eigenvalues --    0.19988   0.20633   0.22085   0.23543   0.23739

 Mulliken charges:
               1
     1  H    0.249177
     2  O   -0.201604
     3  O   -0.146489
     4  N    0.292080
     5  O   -0.193164
 Sum of Mulliken charges =  -0.00000

 Dipole moment (field-independent basis, Debye):
    X=              0.5273    Y=              1.3617    Z=              0.0000  Tot=              1.4602
 Quadrupole moment (field-independent basis, Debye-Ang):
   XX=            -22.3985   YY=            -18.6261   ZZ=            -22.0118
   XY=              3.3046   XZ=              0.0000   YZ=             -0.0000

  Exact polarizability:  34.050   9.499  30.252  -0.000  -0.000  17.935
 Approx polarizability:  29.015   5.127  23.511  -0.000   0.000  15.526

 ******    1 imaginary frequencies (negative Signs) ******

                      1                      2                      3
                     A"                     A"                     A'
 Frequencies --   -278.2775               231.0941               342.5989
 Red. masses --      1.1501                 9.6132                 8.5730
 Frc consts  --      0.0525                 0.3025                 0.5929
 IR Inten    --    124.9058                 1.4041                 4.2818

                      4                      5                      6
                     A'                     A'                     A'
 Frequencies --    451.0948               784.6610               965.9152
 Red. masses --     12.2382                12.9187                15.1426
 Frc consts  --      1.4672                 4.6863                 8.3239
 IR Inten    --    200.5013               171.2840                22.1950

                      7                      8                      9
                     A'                     A'                     A'
 Frequencies --   1366.0048              1677.1527              3778.9646
 Red. masses --      1.1356                13.3032                 1.0678
 Frc consts  --      1.2485                22.0471                 8.9841
 IR Inten    --    149.8588               141.6696                83.6084

 - Thermochemistry -
 -------------------
 Temperature   298.150 Kelvin.  Pressure   1.00000 Atm.
 Atom     1 has atomic number  1 and mass   1.00783

 Molecular mass:    62.99564 amu.
 Principal axes and moments of inertia in atomic units:
                           1         2         3
     Eigenvalues --    32.80914 360.31848 393.12762
           X            0.81064  -0.58554   0.00000
           Y            0.58554   0.81064   0.00000
           Z           -0.00000   0.00000   1.00000
 This molecule is an asymmetric top.
 Rotational symmetry number  1.
 Rotational temperatures (Kelvin)      2.63993     0.24038     0.22032
 Rotational constants (GHZ):          55.00727     5.00874     4.59073
    1 imaginary frequencies ignored.
 Zero-point vibrational energy      57405.7 (Joules/Mol)
                                   13.72030 (Kcal/Mol)
 Warning -- explicit consideration of   3 degrees of freedom as
           vibrations may cause significant error
 Vibrational temperatures:    332.49   492.92   649.02  1128.95  1389.74
          (Kelvin)           1965.38  2413.05  5437.09

 Zero-point correction=                           0.021865 (Hartree/Particle)
 Thermal correction to Energy=                    0.025979
 Thermal correction to Enthalpy=                  0.026923
 Thermal correction to Gibbs Free Energy=        -0.004252
 Sum of electronic and zero-point Energies=           -280.424846
 Sum of electronic and thermal Energies=              -280.420731
 Sum of electronic and thermal Enthalpies=            -280.419787
 Sum of electronic and thermal Free Energies=         -280.450962

                     E (Thermal)             CV                S
                      KCal/Mol        Cal/Mol-Kelvin    Cal/Mol-Kelvin
 Total                   16.302             11.955             65.614
 Electronic               0.000              0.000              0.000
 Translational            0.889              2.981             38.341
 Rotational               0.889              2.981             23.057
 Vibrational             14.525              5.993              4.217
 Vibration     1          0.653              1.793              1.870
 Vibration     2          0.722              1.590              1.200
 Vibration     3          0.810              1.358              0.792

                       ! Non-Optimized Parameters !

 1\1\GINC-N2108\Freq\RMP2-FC\Aug-CC-pVTZ\H1N1O3\CGAVINH\21-Feb-2022\1\\
 #p freq mp2/aug-cc-pvtz density=current\\title\\0,1\H\O,1,r1\O,2,r2,1,
 a1\N,3,r3,2,a2,1,d1,0\O,4,r4,3,a3,2,d2,0\\r1=0.96897556\r2=1.45491931\
 r3=1.45878406\r4=1.17072885\a1=98.42565611\a2=102.29752444\a3=109.0695
 5123\d1=180.\d2=180.\\Version=ES64L-G16RevB.01\State=1-A'\HF=-279.5017
 737\MP2=-280.4467103\RMSD=3.799e-09\RMSF=7.638e-04\ZeroPoint=0.0218647
 \Thermal=0.0259791\Dipole=-0.1454868,0.,-0.5557578\DipoleDeriv=0.26337
 28,0.,0.0452562,0.,0.3565579,0.,0.0837345,0.,0.2770911,-0.3223503,0.,-

 Normal termination of Gaussian 16 at Mon Feb 21 20:37:04 2022.
