 Gaussian 16, Revision B.01,
 Gaussian 16:  ES64L-G16RevB.01 20-Dec-2017

 ---------------------------------------
 #p freq mp2/aug-cc-pvtz density=current
 ---------------------------------------

 -----
 title
 -----
 Symbolic Z-matrix:
 Charge =  0 Multiplicity = 1

                         Standard orientation:
 ---------------------------------------------------------------------
 Center     Atomic      Atomic             Coordinates (Angstroms)
 Number     Number       Type             X           Y           Z
 ---------------------------------------------------------------------
      1          1           0        1.081417   -0.609657    0.000000
      2          8           0        1.305567    0.349887    0.000000
      3          8           0       -0.000000    0.925276    0.000000
      4          7           0       -0.986928   -0.040866    0.000000
      5          8           0       -0.577182   -1.163198    0.000000
 ---------------------------------------------------------------------

 SCF Done:  E(RHF) =  -279.505986725     A.U. after   14 cycles
 E2 =    -0.9491054987D+00 EUMP2 =    -0.28045509222387D+03
 E2 =    -0.9491054987D+00 EUMP2 =    -0.28045509222387D+03

 The electronic state is 1-A'.
 Alpha  occ. eigenvalues --  -20.72137 -20.68804 -20.66642 -15.82602  -1.64621
 Alpha  occ. eigenvalues --   -1.50496  -1.29371  -0.96057  -0.83741  -0.75961
 Alpha  occ. eigenvalues --   -0.74101  -0.63580  -0.61954  -0.61791  -0.50558
 Alpha  occ. eigenvalues --   -0.49789
 Alpha virt. eigenvalues --    0.03533   0.05965   0.09502   0.09994   0.11969
 Alpha virt. eigenvalues --    0.12276   0.14983   0.15282   0.17739   0.17997
 Alpha virt. eigenvalues --    0.18962   0.21097   0.21672   0.24407   0.24620

 Mulliken charges:
               1
     1  H    0.273499
     2  O   -0.275926
     3  O    0.037617
     4  N    0.156592
     5  O   -0.191782
 Sum of Mulliken charges =  -0.00000

 Dipole moment (field-independent basis, Debye):
    X=              0.0099    Y=             -1.0818    Z=              0.0000  Tot=              1.0818
 Quadrupole moment (field-independent basis, Debye-Ang):
   XX=            -23.4849   YY=            -22.8517   ZZ=            -21.9285
   XY=             -1.9448   XZ=              0.0000   YZ=              0.0000

  Exact polarizability:  30.671   4.020  29.766   0.000   0.000  17.594
 Approx polarizability:  24.404   0.407  27.675  -0.000  -0.000  15.500

                      1                      2                      3
                     A"                     A'                     A"
 Frequencies --    351.8766               425.8300               529.5813
 Red. masses --      1.5627                 7.1425                 2.8768
 Frc consts  --      0.1140                 0.7631                 0.4754
 IR Inten    --     62.1441                 7.8577                25.0227

                      4                      5                      6
                     A'                     A'                     A'
 Frequencies --    709.3894               838.9231               970.5017
 Red. masses --     13.4695                12.5653                 9.9933
 Frc consts  --      3.9937                 5.2104                 5.5456
 IR Inten    --    213.2725                33.0103                12.5683

                      7                      8                      9
                     A'                     A'                     A'
 Frequencies --   1437.9834              1575.7858              3477.2919
 Red. masses --      1.3336                 5.6100                 1.0635
 Frc consts  --      1.6247                 8.2075                 7.5768
 IR Inten    --     81.9886               147.7298                47.5899

 - Thermochemistry -
 -------------------
 Temperature   298.150 Kelvin.  Pressure   1.00000 Atm.
 Atom     1 has atomic number  1 and mass   1.00783

 Molecular mass:    62.99564 amu.
 Principal axes and moments of inertia in atomic units:
                           1         2         3
     Eigenvalues --    85.48612 218.32977 303.81589
           X            0.79401  -0.60790   0.00000
           Y            0.60790   0.79401   0.00000
           Z            0.00000   0.00000   1.00000
 This molecule is an asymmetric top.
 Rotational symmetry number  1.
 Rotational temperatures (Kelvin)      1.01319     0.39671     0.28509
 Rotational constants (GHZ):          21.11151     8.26613     5.94025
 Zero-point vibrational energy      61710.3 (Joules/Mol)
                                   14.74913 (Kcal/Mol)
 Warning -- explicit consideration of   3 degrees of freedom as
           vibrations may cause significant error
 Vibrational temperatures:    506.27   612.67   761.95  1020.65  1207.02
          (Kelvin)           1396.34  2068.94  2267.20  5003.05

 Zero-point correction=                           0.023504 (Hartree/Particle)
 Thermal correction to Energy=                    0.027412
 Thermal correction to Enthalpy=                  0.028356
 Thermal correction to Gibbs Free Energy=        -0.002439
 Sum of electronic and zero-point Energies=           -280.431588
 Sum of electronic and thermal Energies=              -280.427680
 Sum of electronic and thermal Enthalpies=            -280.426736
 Sum of electronic and thermal Free Energies=         -280.457532

                     E (Thermal)             CV                S
                      KCal/Mol        Cal/Mol-Kelvin    Cal/Mol-Kelvin
 Total                   17.201             12.093             64.815
 Electronic               0.000              0.000              0.000
 Translational            0.889              2.981             38.341
 Rotational               0.889              2.981             23.254
 Vibrational             15.424              6.131              3.220
 Vibration     1          0.728              1.571              1.158
 Vibration     2          0.788              1.414              0.872
 Vibration     3          0.885              1.185              0.588

                       ! Non-Optimized Parameters !

 1\1\GINC-N2219\Freq\RMP2-FC\Aug-CC-pVTZ\H1N1O3\CGAVINH\06-Mar-2022\1\\
 #p freq mp2/aug-cc-pvtz density=current\\title\\0,1\H\O,1,r1\O,2,r2,1,
 a1\N,3,r3,2,a2,1,d1,0\O,4,r4,3,a3,2,d2,0\\r1=0.98537664\r2=1.42673666\
 r3=1.38110764\r4=1.19478846\a1=100.6355057\a2=111.82567592\a3=114.3339
 2022\d1=0.\d2=0.\\Version=ES64L-G16RevB.01\State=1-A'\HF=-279.5059867\
 MP2=-280.4550922\RMSD=4.693e-09\RMSF=2.396e-03\ZeroPoint=0.0235042\The
 rmal=0.0274122\Dipole=-0.1006139,0.,-0.4135652\DipoleDeriv=0.3203928,0
 .,0.0326497,0.,0.2958475,0.,-0.0333963,0.,0.2102697,-0.5172284,0.,0.28

 Normal termination of Gaussian 16 at Sun Mar  6 19:38:42 2022.
