 Gaussian 16, Revision B.01,
 Gaussian 16:  ES64L-G16RevB.01 20-Dec-2017

 ---------------------------------------
 #p freq mp2/aug-cc-pvtz density=current
 ---------------------------------------

 -----
 title
 -----
 Symbolic Z-matrix:
 Charge =  0 Multiplicity = 1

                         Standard orientation:
 ---------------------------------------------------------------------
 Center     Atomic      Atomic             Coordinates (Angstroms)
 Number     Number       Type             X           Y           Z
 ---------------------------------------------------------------------
      1          1           0        1.115853   -0.591664    0.000000
      2          8           0        1.318245    0.372704    0.000000
      3          8           0       -0.000000    0.918420    0.000000
      4          7           0       -0.987201   -0.047444    0.000000
      5          8           0       -0.593926   -1.175652    0.000000
 ---------------------------------------------------------------------

 SCF Done:  E(RHF) =  -279.506388576     A.U. after   14 cycles
 E2 =    -0.9487822170D+00 EUMP2 =    -0.28045517079342D+03
 E2 =    -0.9487822170D+00 EUMP2 =    -0.28045517079342D+03

 The electronic state is 1-A'.
 Alpha  occ. eigenvalues --  -20.72064 -20.68766 -20.66881 -15.82549  -1.64327
 Alpha  occ. eigenvalues --   -1.50629  -1.29413  -0.96061  -0.83365  -0.75876
 Alpha  occ. eigenvalues --   -0.73984  -0.63852  -0.61950  -0.61892  -0.50325
 Alpha  occ. eigenvalues --   -0.49797
 Alpha virt. eigenvalues --    0.03499   0.06072   0.09511   0.10051   0.11974
 Alpha virt. eigenvalues --    0.12266   0.14905   0.15191   0.17765   0.18036
 Alpha virt. eigenvalues --    0.18962   0.21108   0.21673   0.24259   0.24635

 Mulliken charges:
               1
     1  H    0.278293
     2  O   -0.274163
     3  O    0.037756
     4  N    0.154343
     5  O   -0.196228
 Sum of Mulliken charges =  -0.00000

 Dipole moment (field-independent basis, Debye):
    X=              0.0714    Y=             -1.0952    Z=              0.0000  Tot=              1.0975
 Quadrupole moment (field-independent basis, Debye-Ang):
   XX=            -23.3962   YY=            -22.9484   ZZ=            -21.9365
   XY=             -1.9670   XZ=              0.0000   YZ=              0.0000

  Exact polarizability:  30.949   4.207  29.962   0.000   0.000  17.636
 Approx polarizability:  24.522   0.606  27.766  -0.000  -0.000  15.523

                      1                      2                      3
                     A"                     A'                     A"
 Frequencies --    352.0161               385.5210               518.4584
 Red. masses --      1.5644                 7.1098                 2.8873
 Frc consts  --      0.1142                 0.6226                 0.4573
 IR Inten    --     62.7615                 7.6581                25.6897

                      4                      5                      6
                     A'                     A'                     A'
 Frequencies --    705.4010               838.5665               968.7157
 Red. masses --     13.2194                12.3931                 9.9131
 Frc consts  --      3.8756                 5.1346                 5.4809
 IR Inten    --    215.9949                33.4933                13.3690

                      7                      8                      9
                     A'                     A'                     A'
 Frequencies --   1438.2314              1569.3877              3489.2858
 Red. masses --      1.3037                 6.3616                 1.0640
 Frc consts  --      1.5889                 9.2316                 7.6323
 IR Inten    --     79.1932               151.9831                41.3737

 - Thermochemistry -
 -------------------
 Temperature   298.150 Kelvin.  Pressure   1.00000 Atm.
 Atom     1 has atomic number  1 and mass   1.00783

 Molecular mass:    62.99564 amu.
 Principal axes and moments of inertia in atomic units:
                           1         2         3
     Eigenvalues --    84.17236 224.79473 308.96709
           X            0.79278  -0.60951   0.00000
           Y            0.60951   0.79278   0.00000
           Z            0.00000   0.00000   1.00000
 This molecule is an asymmetric top.
 Rotational symmetry number  1.
 Rotational temperatures (Kelvin)      1.02901     0.38530     0.28033
 Rotational constants (GHZ):          21.44102     8.02840     5.84121
 Zero-point vibrational energy      61401.8 (Joules/Mol)
                                   14.67539 (Kcal/Mol)
 Warning -- explicit consideration of   3 degrees of freedom as
           vibrations may cause significant error
 Vibrational temperatures:    506.47   554.68   745.95  1014.91  1206.51
          (Kelvin)           1393.77  2069.29  2258.00  5020.30

 Zero-point correction=                           0.023387 (Hartree/Particle)
 Thermal correction to Energy=                    0.027343
 Thermal correction to Enthalpy=                  0.028287
 Thermal correction to Gibbs Free Energy=        -0.002607
 Sum of electronic and zero-point Energies=           -280.431784
 Sum of electronic and thermal Energies=              -280.427828
 Sum of electronic and thermal Enthalpies=            -280.426884
 Sum of electronic and thermal Free Energies=         -280.457777

                     E (Thermal)             CV                S
                      KCal/Mol        Cal/Mol-Kelvin    Cal/Mol-Kelvin
 Total                   17.158             12.215             65.021
 Electronic               0.000              0.000              0.000
 Translational            0.889              2.981             38.341
 Rotational               0.889              2.981             23.284
 Vibrational             15.380              6.254              3.396
 Vibration     1          0.729              1.571              1.157
 Vibration     2          0.754              1.501              1.017
 Vibration     3          0.873              1.209              0.614

                       ! Non-Optimized Parameters !

 1\1\GINC-N2199\Freq\RMP2-FC\Aug-CC-pVTZ\H1N1O3\CGAVINH\06-Mar-2022\1\\
 #p freq mp2/aug-cc-pvtz density=current\\title\\0,1\H\O,1,r1\O,2,r2,1,
 a1\N,3,r3,2,a2,1,d1,0\O,4,r4,3,a3,2,d2,0\\r1=0.98537664\r2=1.42673666\
 r3=1.38110764\r4=1.19478846\a1=100.6355057\a2=113.13777052\a3=115.1563
 4619\d1=0.\d2=0.\\Version=ES64L-G16RevB.01\State=1-A'\HF=-279.5063886\
 MP2=-280.4551708\RMSD=4.340e-09\RMSF=1.863e-03\ZeroPoint=0.0233867\The
 rmal=0.0273429\Dipole=-0.115986,0.,-0.4159275\DipoleDeriv=0.3149656,0.
 ,0.0390295,0.,0.298386,0.,-0.0221919,0.,0.1967086,-0.5301907,0.,0.2799

 Normal termination of Gaussian 16 at Sun Mar  6 19:42:52 2022.
