 Gaussian 16, Revision B.01,
 Gaussian 16:  ES64L-G16RevB.01 20-Dec-2017

 ---------------------------------------
 #p freq mp2/aug-cc-pvtz density=current
 ---------------------------------------

 -----
 title
 -----
 Symbolic Z-matrix:
 Charge =  0 Multiplicity = 1

                         Standard orientation:
 ---------------------------------------------------------------------
 Center     Atomic      Atomic             Coordinates (Angstroms)
 Number     Number       Type             X           Y           Z
 ---------------------------------------------------------------------
      1          1           0        1.115181   -0.605207    0.000000
      2          8           0        1.325126    0.357544    0.000000
      3          8           0       -0.000000    0.918316    0.000000
      4          7           0       -0.994742   -0.039780    0.000000
      5          8           0       -0.594125   -1.165402    0.000000
 ---------------------------------------------------------------------

 SCF Done:  E(RHF) =  -279.505618341     A.U. after   14 cycles
 E2 =    -0.9495581402D+00 EUMP2 =    -0.28045517648106D+03
 E2 =    -0.9495581402D+00 EUMP2 =    -0.28045517648106D+03

 The electronic state is 1-A'.
 Alpha  occ. eigenvalues --  -20.71973 -20.68707 -20.66944 -15.82618  -1.64241
 Alpha  occ. eigenvalues --   -1.50106  -1.29532  -0.95970  -0.83251  -0.75807
 Alpha  occ. eigenvalues --   -0.73830  -0.63910  -0.61715  -0.61588  -0.50426
 Alpha  occ. eigenvalues --   -0.49954
 Alpha virt. eigenvalues --    0.03492   0.06032   0.09509   0.10022   0.11981
 Alpha virt. eigenvalues --    0.12233   0.14864   0.15114   0.17756   0.18052
 Alpha virt. eigenvalues --    0.18985   0.21094   0.21658   0.23685   0.24634

 Mulliken charges:
               1
     1  H    0.279901
     2  O   -0.275617
     3  O    0.034524
     4  N    0.156285
     5  O   -0.195093
 Sum of Mulliken charges =   0.00000

 Dipole moment (field-independent basis, Debye):
    X=              0.0308    Y=             -1.1096    Z=              0.0000  Tot=              1.1100
 Quadrupole moment (field-independent basis, Debye-Ang):
   XX=            -23.3792   YY=            -22.9214   ZZ=            -21.9495
   XY=             -2.0011   XZ=              0.0000   YZ=              0.0000

  Exact polarizability:  31.133   4.077  29.853   0.000   0.000  17.654
 Approx polarizability:  24.817   0.428  27.709  -0.000  -0.000  15.533

                      1                      2                      3
                     A"                     A'                     A"
 Frequencies --    353.2902               395.1621               522.3597
 Red. masses --      1.5471                 7.0777                 2.9454
 Frc consts  --      0.1138                 0.6512                 0.4735
 IR Inten    --     63.3588                 7.6104                25.3108

                      4                      5                      6
                     A'                     A'                     A'
 Frequencies --    707.7540               814.3083               957.8307
 Red. masses --     13.2941                13.0182                 9.3095
 Frc consts  --      3.9235                 5.0860                 5.0322
 IR Inten    --    212.3148                32.5560                13.3659

                      7                      8                      9
                     A'                     A'                     A'
 Frequencies --   1422.5344              1567.6904              3492.6359
 Red. masses --      1.2788                 7.1844                 1.0640
 Frc consts  --      1.5247                10.4031                 7.6469
 IR Inten    --     80.5794               149.0091                42.0655

 - Thermochemistry -
 -------------------
 Temperature   298.150 Kelvin.  Pressure   1.00000 Atm.
 Atom     1 has atomic number  1 and mass   1.00783

 Molecular mass:    62.99564 amu.
 Principal axes and moments of inertia in atomic units:
                           1         2         3
     Eigenvalues --    85.24288 223.52869 308.77157
           X            0.80271  -0.59636   0.00000
           Y            0.59636   0.80271   0.00000
           Z            0.00000   0.00000   1.00000
 This molecule is an asymmetric top.
 Rotational symmetry number  1.
 Rotational temperatures (Kelvin)      1.01608     0.38748     0.28051
 Rotational constants (GHZ):          21.17175     8.07387     5.84491
 Zero-point vibrational energy      61210.3 (Joules/Mol)
                                   14.62962 (Kcal/Mol)
 Warning -- explicit consideration of   3 degrees of freedom as
           vibrations may cause significant error
 Vibrational temperatures:    508.31   568.55   751.56  1018.30  1171.61
          (Kelvin)           1378.10  2046.71  2255.56  5025.12

 Zero-point correction=                           0.023314 (Hartree/Particle)
 Thermal correction to Energy=                    0.027264
 Thermal correction to Enthalpy=                  0.028208
 Thermal correction to Gibbs Free Energy=        -0.002674
 Sum of electronic and zero-point Energies=           -280.431863
 Sum of electronic and thermal Energies=              -280.427913
 Sum of electronic and thermal Enthalpies=            -280.426968
 Sum of electronic and thermal Free Energies=         -280.457851

                     E (Thermal)             CV                S
                      KCal/Mol        Cal/Mol-Kelvin    Cal/Mol-Kelvin
 Total                   17.108             12.236             64.997
 Electronic               0.000              0.000              0.000
 Translational            0.889              2.981             38.341
 Rotational               0.889              2.981             23.291
 Vibrational             15.331              6.274              3.366
 Vibration     1          0.729              1.569              1.151
 Vibration     2          0.762              1.481              0.981
 Vibration     3          0.877              1.200              0.605

                       ! Non-Optimized Parameters !

 1\1\GINC-N2199\Freq\RMP2-FC\Aug-CC-pVTZ\H1N1O3\CGAVINH\06-Mar-2022\1\\
 #p freq mp2/aug-cc-pvtz density=current\\title\\0,1\H\O,1,r1\O,2,r2,1,
 a1\N,3,r3,2,a2,1,d1,0\O,4,r4,3,a3,2,d2,0\\r1=0.98537664\r2=1.43889676\
 r3=1.38110764\r4=1.19478846\a1=100.6355057\a2=113.13777052\a3=114.3339
 2022\d1=0.\d2=0.\\Version=ES64L-G16RevB.01\State=1-A'\HF=-279.5056183\
 MP2=-280.4551765\RMSD=4.651e-09\RMSF=1.828e-03\ZeroPoint=0.0233138\The
 rmal=0.0272639\Dipole=-0.1048406,0.,-0.4239448\DipoleDeriv=0.316779,0.
 ,0.0374247,0.,0.2986277,0.,-0.0205692,0.,0.1984002,-0.530272,0.,0.2697

 Normal termination of Gaussian 16 at Sun Mar  6 18:59:16 2022.
