 Gaussian 16, Revision B.01,
 Gaussian 16:  ES64L-G16RevB.01 20-Dec-2017

 ---------------------------------------
 #p freq mp2/aug-cc-pvtz density=current
 ---------------------------------------

 -----
 title
 -----
 Symbolic Z-matrix:
 Charge =  0 Multiplicity = 1

                         Standard orientation:
 ---------------------------------------------------------------------
 Center     Atomic      Atomic             Coordinates (Angstroms)
 Number     Number       Type             X           Y           Z
 ---------------------------------------------------------------------
      1          1           0        1.076692   -0.588998    0.000000
      2          8           0        1.316473    0.366760    0.000000
      3          8           0       -0.000000    0.916739    0.000000
      4          7           0       -0.990322   -0.045924    0.000000
      5          8           0       -0.584528   -1.169691    0.000000
 ---------------------------------------------------------------------

 SCF Done:  E(RHF) =  -279.505817249     A.U. after   14 cycles
 E2 =    -0.9492616511D+00 EUMP2 =    -0.28045507889990D+03
 E2 =    -0.9492616511D+00 EUMP2 =    -0.28045507889990D+03

 The electronic state is 1-A'.
 Alpha  occ. eigenvalues --  -20.71959 -20.68852 -20.66870 -15.82705  -1.64597
 Alpha  occ. eigenvalues --   -1.50634  -1.29391  -0.96033  -0.83652  -0.75974
 Alpha  occ. eigenvalues --   -0.74077  -0.63817  -0.61926  -0.61882  -0.50604
 Alpha  occ. eigenvalues --   -0.49772
 Alpha virt. eigenvalues --    0.03545   0.05937   0.09500   0.10029   0.11932
 Alpha virt. eigenvalues --    0.12261   0.14930   0.15310   0.17734   0.17968
 Alpha virt. eigenvalues --    0.18960   0.21078   0.21700   0.24222   0.24630

 Mulliken charges:
               1
     1  H    0.271970
     2  O   -0.275120
     3  O    0.038749
     4  N    0.156845
     5  O   -0.192445
 Sum of Mulliken charges =  -0.00000

 Dipole moment (field-independent basis, Debye):
    X=              0.0018    Y=             -1.0762    Z=              0.0000  Tot=              1.0762
 Quadrupole moment (field-independent basis, Debye-Ang):
   XX=            -23.4555   YY=            -22.9502   ZZ=            -21.9254
   XY=             -1.8831   XZ=              0.0000   YZ=              0.0000

  Exact polarizability:  30.897   4.227  29.818   0.000   0.000  17.585
 Approx polarizability:  24.622   0.614  27.610  -0.000  -0.000  15.494

                      1                      2                      3
                     A"                     A'                     A"
 Frequencies --    374.3111               398.1481               521.1180
 Red. masses --      1.5484                 7.2431                 2.9179
 Frc consts  --      0.1278                 0.6765                 0.4669
 IR Inten    --     60.9276                 7.9396                24.6115

                      4                      5                      6
                     A'                     A'                     A'
 Frequencies --    713.1877               840.7700               974.1752
 Red. masses --     13.4311                13.2381                 9.8052
 Frc consts  --      4.0250                 5.5135                 5.4825
 IR Inten    --    215.3679                31.8765                12.6722

                      7                      8                      9
                     A'                     A'                     A'
 Frequencies --   1456.0517              1577.4126              3475.0970
 Red. masses --      1.3797                 4.8140                 1.0635
 Frc consts  --      1.7234                 7.0575                 7.5673
 IR Inten    --     82.2376               150.3433                45.9752

 - Thermochemistry -
 -------------------
 Temperature   298.150 Kelvin.  Pressure   1.00000 Atm.
 Atom     1 has atomic number  1 and mass   1.00783

 Molecular mass:    62.99564 amu.
 Principal axes and moments of inertia in atomic units:
                           1         2         3
     Eigenvalues --    84.30320 222.52479 306.82800
           X            0.79498  -0.60664   0.00000
           Y            0.60664   0.79498   0.00000
           Z            0.00000   0.00000   1.00000
 This molecule is an asymmetric top.
 Rotational symmetry number  1.
 Rotational temperatures (Kelvin)      1.02741     0.38923     0.28229
 Rotational constants (GHZ):          21.40774     8.11029     5.88193
 Zero-point vibrational energy      61788.7 (Joules/Mol)
                                   14.76786 (Kcal/Mol)
 Warning -- explicit consideration of   3 degrees of freedom as
           vibrations may cause significant error
 Vibrational temperatures:    538.55   572.85   749.77  1026.12  1209.68
          (Kelvin)           1401.62  2094.93  2269.54  4999.89

 Zero-point correction=                           0.023534 (Hartree/Particle)
 Thermal correction to Energy=                    0.027447
 Thermal correction to Enthalpy=                  0.028391
 Thermal correction to Gibbs Free Energy=        -0.002418
 Sum of electronic and zero-point Energies=           -280.431545
 Sum of electronic and thermal Energies=              -280.427632
 Sum of electronic and thermal Enthalpies=            -280.426688
 Sum of electronic and thermal Free Energies=         -280.457496

                     E (Thermal)             CV                S
                      KCal/Mol        Cal/Mol-Kelvin    Cal/Mol-Kelvin
 Total                   17.223             12.104             64.842
 Electronic               0.000              0.000              0.000
 Translational            0.889              2.981             38.341
 Rotational               0.889              2.981             23.269
 Vibrational             15.446              6.143              3.233
 Vibration     1          0.745              1.525              1.062
 Vibration     2          0.764              1.474              0.969
 Vibration     3          0.876              1.203              0.607

                       ! Non-Optimized Parameters !

 1\1\GINC-N2108\Freq\RMP2-FC\Aug-CC-pVTZ\H1N1O3\CGAVINH\06-Mar-2022\1\\
 #p freq mp2/aug-cc-pvtz density=current\\title\\0,1\H\O,1,r1\O,2,r2,1,
 a1\N,3,r3,2,a2,1,d1,0\O,4,r4,3,a3,2,d2,0\\r1=0.98537664\r2=1.42673666\
 r3=1.38110764\r4=1.19478846\a1=98.58991215\a2=113.13777052\a3=114.3339
 2022\d1=0.\d2=0.\\Version=ES64L-G16RevB.01\State=1-A'\HF=-279.5058172\
 MP2=-280.4550789\RMSD=4.499e-09\RMSF=1.941e-03\ZeroPoint=0.0235341\The
 rmal=0.027447\Dipole=-0.1037322,0.,-0.4104992\DipoleDeriv=0.3208663,0.
 ,0.0297087,0.,0.2932778,0.,-0.0418984,0.,0.2052989,-0.5251039,0.,0.300

 Normal termination of Gaussian 16 at Sun Mar  6 19:30:37 2022.
