 Gaussian 16, Revision B.01,
 Gaussian 16:  ES64L-G16RevB.01 20-Dec-2017

 ---------------------------------------
 #p freq mp2/aug-cc-pvtz density=current
 ---------------------------------------

 -----
 title
 -----
 Symbolic Z-matrix:
 Charge =  0 Multiplicity = 1

                         Standard orientation:
 ---------------------------------------------------------------------
 Center     Atomic      Atomic             Coordinates (Angstroms)
 Number     Number       Type             X           Y           Z
 ---------------------------------------------------------------------
      1          1           0       -2.244725    0.430044    0.105978
      2          8           0       -1.599055   -0.283215   -0.009284
      3          8           0       -0.400279    0.541234   -0.012425
      4          7           0        0.663365   -0.456970    0.004921
      5          8           0        1.699480    0.088074    0.004156
 ---------------------------------------------------------------------

 SCF Done:  E(RHF) =  -279.501737877     A.U. after   14 cycles
 E2 =    -0.9450647177D+00 EUMP2 =    -0.28044680259508D+03
 E2 =    -0.9450647177D+00 EUMP2 =    -0.28044680259508D+03

 The electronic state is 1-A.
 Alpha  occ. eigenvalues --  -20.69095 -20.68428 -20.66005 -15.81278  -1.62403
 Alpha  occ. eigenvalues --   -1.49578  -1.25442  -0.94808  -0.77267  -0.75930
 Alpha  occ. eigenvalues --   -0.71226  -0.67913  -0.62021  -0.58917  -0.48597
 Alpha  occ. eigenvalues --   -0.47214
 Alpha virt. eigenvalues --    0.02961   0.07166   0.08594   0.10173   0.13302
 Alpha virt. eigenvalues --    0.13469   0.14400   0.15449   0.17820   0.19415
 Alpha virt. eigenvalues --    0.19956   0.20647   0.22081   0.23540   0.23733

 Mulliken charges:
               1
     1  H    0.250159
     2  O   -0.201611
     3  O   -0.147103
     4  N    0.291856
     5  O   -0.193301
 Sum of Mulliken charges =  -0.00000

 Dipole moment (field-independent basis, Debye):
    X=             -1.2113    Y=              0.7825    Z=              0.2012  Tot=              1.4560
 Quadrupole moment (field-independent basis, Debye-Ang):
   XX=            -18.0331   YY=            -23.1055   ZZ=            -21.9783
   XY=             -2.7638   XZ=             -0.5310   YZ=              0.1633

  Exact polarizability:  41.714  -0.966  22.514  -0.105   0.020  17.945
 Approx polarizability:  31.939   1.142  20.567  -0.091   0.076  15.545

 ******    1 imaginary frequencies (negative Signs) ******

                      1                      2                      3
                      A                      A                      A
 Frequencies --   -264.5727               228.6114               342.1424
 Red. masses --      1.1401                10.5649                 8.6285
 Frc consts  --      0.0470                 0.3253                 0.5951
 IR Inten    --    125.1315                 0.8153                 4.7522

                      4                      5                      6
                      A                      A                      A
 Frequencies --    452.2302               785.6964               966.7696
 Red. masses --     12.2445                12.9332                15.3664
 Frc consts  --      1.4754                 4.7040                 8.4619
 IR Inten    --    198.1837               170.1886                23.2964

                      7                      8                      9
                      A                      A                      A
 Frequencies --   1371.5063              1677.2925              3778.4349
 Red. masses --      1.1326                13.2336                 1.0676
 Frc consts  --      1.2552                21.9354                 8.9798
 IR Inten    --    151.7095               140.7640                82.1318

 - Thermochemistry -
 -------------------
 Temperature   298.150 Kelvin.  Pressure   1.00000 Atm.
 Atom     1 has atomic number  1 and mass   1.00783

 Molecular mass:    62.99564 amu.
 Principal axes and moments of inertia in atomic units:
                           1         2         3
     Eigenvalues --    32.87115 360.12523 392.89079
           X            0.99994  -0.01057  -0.00243
           Y            0.01059   0.99993   0.00526
           Z            0.00237  -0.00528   0.99998
 This molecule is an asymmetric top.
 Rotational symmetry number  1.
 Rotational temperatures (Kelvin)      2.63495     0.24051     0.22045
 Rotational constants (GHZ):          54.90350     5.01143     4.59349
    1 imaginary frequencies ignored.
 Zero-point vibrational energy      57436.8 (Joules/Mol)
                                   13.72773 (Kcal/Mol)
 Warning -- explicit consideration of   3 degrees of freedom as
           vibrations may cause significant error
 Vibrational temperatures:    328.92   492.27   650.66  1130.44  1390.97
          (Kelvin)           1973.29  2413.25  5436.33

 Zero-point correction=                           0.021877 (Hartree/Particle)
 Thermal correction to Energy=                    0.025994
 Thermal correction to Enthalpy=                  0.026938
 Thermal correction to Gibbs Free Energy=        -0.004246
 Sum of electronic and zero-point Energies=           -280.424926
 Sum of electronic and thermal Energies=              -280.420809
 Sum of electronic and thermal Enthalpies=            -280.419865
 Sum of electronic and thermal Free Energies=         -280.451048

                     E (Thermal)             CV                S
                      KCal/Mol        Cal/Mol-Kelvin    Cal/Mol-Kelvin
 Total                   16.311             11.952             65.631
 Electronic               0.000              0.000              0.000
 Translational            0.889              2.981             38.341
 Rotational               0.889              2.981             23.057
 Vibrational             14.534              5.991              4.233
 Vibration     1          0.651              1.797              1.890
 Vibration     2          0.721              1.591              1.202
 Vibration     3          0.811              1.356              0.789

                       ! Non-Optimized Parameters !

 1\1\GINC-N2109\Freq\RMP2-FC\Aug-CC-pVTZ\H1N1O3\CGAVINH\21-Feb-2022\1\\
 #p freq mp2/aug-cc-pvtz density=current\\title\\0,1\H\O,1,r1\O,2,r2,1,
 a1\N,3,r3,2,a2,1,d1,0\O,4,r4,3,a3,2,d2,0\\r1=0.96897556\r2=1.45491931\
 r3=1.45878406\r4=1.17072885\a1=97.59494903\a2=102.29752444\a3=109.0695
 5123\d1=172.39995154\d2=180.\\Version=ES64L-G16RevB.01\State=1-A\HF=-2
 79.5017379\MP2=-280.4468026\RMSD=9.025e-09\RMSF=3.637e-04\ZeroPoint=0.
 0218765\Thermal=0.0259935\Dipole=-0.1465143,0.0154404,-0.553579\Dipole
 Deriv=0.2660421,-0.0011507,0.0481545,-0.0013305,0.3549572,-0.0013105,0

 Normal termination of Gaussian 16 at Mon Feb 21 21:08:07 2022.
