 Gaussian 16, Revision B.01,
 Gaussian 16:  ES64L-G16RevB.01 20-Dec-2017

 ---------------------------------------
 #p freq mp2/aug-cc-pvtz density=current
 ---------------------------------------

 -----
 title
 -----
 Symbolic Z-matrix:
 Charge =  0 Multiplicity = 1

                         Standard orientation:
 ---------------------------------------------------------------------
 Center     Atomic      Atomic             Coordinates (Angstroms)
 Number     Number       Type             X           Y           Z
 ---------------------------------------------------------------------
      1          1           0        1.120605   -0.582779    0.000000
      2          8           0        1.319958    0.382222    0.000000
      3          8           0        0.000000    0.923782    0.000000
      4          7           0       -0.998931   -0.059736    0.000000
      5          8           0       -0.585969   -1.180888    0.000000
 ---------------------------------------------------------------------

 SCF Done:  E(RHF) =  -279.504493732     A.U. after   14 cycles
 E2 =    -0.9505870966D+00 EUMP2 =    -0.28045508082844D+03
 E2 =    -0.9505870966D+00 EUMP2 =    -0.28045508082844D+03

 The electronic state is 1-A'.
 Alpha  occ. eigenvalues --  -20.71638 -20.69203 -20.66707 -15.82856  -1.63962
 Alpha  occ. eigenvalues --   -1.50487  -1.28640  -0.96157  -0.83240  -0.75655
 Alpha  occ. eigenvalues --   -0.73542  -0.63689  -0.62027  -0.61916  -0.50420
 Alpha  occ. eigenvalues --   -0.49545
 Alpha virt. eigenvalues --    0.03517   0.05724   0.09501   0.10033   0.11972
 Alpha virt. eigenvalues --    0.12214   0.14979   0.15258   0.17766   0.17999
 Alpha virt. eigenvalues --    0.18991   0.21081   0.21678   0.24187   0.24627

 Mulliken charges:
               1
     1  H    0.277613
     2  O   -0.271474
     3  O    0.021632
     4  N    0.161349
     5  O   -0.189120
 Sum of Mulliken charges =  -0.00000

 Dipole moment (field-independent basis, Debye):
    X=             -0.0004    Y=             -1.1911    Z=              0.0000  Tot=              1.1911
 Quadrupole moment (field-independent basis, Debye-Ang):
   XX=            -23.3069   YY=            -22.9854   ZZ=            -21.9669
   XY=             -1.9303   XZ=              0.0000   YZ=              0.0000

  Exact polarizability:  31.025   4.287  30.159   0.000   0.000  17.689
 Approx polarizability:  24.737   0.623  27.990  -0.000  -0.000  15.549

                      1                      2                      3
                     A"                     A'                     A"
 Frequencies --    343.6816               379.9295               518.7587
 Red. masses --      1.5062                 7.2391                 3.1059
 Frc consts  --      0.1048                 0.6157                 0.4925
 IR Inten    --     64.1430                 9.6631                23.8246

                      4                      5                      6
                     A'                     A'                     A'
 Frequencies --    639.5751               834.7763               965.8935
 Red. masses --     13.1303                12.1160                10.0894
 Frc consts  --      3.1645                 4.9745                 5.5459
 IR Inten    --    234.5726                28.3785                11.2913

                      7                      8                      9
                     A'                     A'                     A'
 Frequencies --   1435.0426              1559.9379              3489.8328
 Red. masses --      1.3200                 5.9250                 1.0640
 Frc consts  --      1.6017                 8.4948                 7.6350
 IR Inten    --     78.7940               149.9926                39.2213

 - Thermochemistry -
 -------------------
 Temperature   298.150 Kelvin.  Pressure   1.00000 Atm.
 Atom     1 has atomic number  1 and mass   1.00783

 Molecular mass:    62.99564 amu.
 Principal axes and moments of inertia in atomic units:
                           1         2         3
     Eigenvalues --    84.56005 227.03981 311.59986
           X            0.78998  -0.61313   0.00000
           Y            0.61313   0.78998   0.00000
           Z            0.00000   0.00000   1.00000
 This molecule is an asymmetric top.
 Rotational symmetry number  1.
 Rotational temperatures (Kelvin)      1.02429     0.38149     0.27797
 Rotational constants (GHZ):          21.34272     7.94901     5.79186
 Zero-point vibrational energy      60814.7 (Joules/Mol)
                                   14.53507 (Kcal/Mol)
 Warning -- explicit consideration of   3 degrees of freedom as
           vibrations may cause significant error
 Vibrational temperatures:    494.48   546.63   746.38   920.21  1201.06
          (Kelvin)           1389.71  2064.71  2244.40  5021.09

 Zero-point correction=                           0.023163 (Hartree/Particle)
 Thermal correction to Energy=                    0.027165
 Thermal correction to Enthalpy=                  0.028109
 Thermal correction to Gibbs Free Energy=        -0.002867
 Sum of electronic and zero-point Energies=           -280.431918
 Sum of electronic and thermal Energies=              -280.427916
 Sum of electronic and thermal Enthalpies=            -280.426972
 Sum of electronic and thermal Free Energies=         -280.457948

                     E (Thermal)             CV                S
                      KCal/Mol        Cal/Mol-Kelvin    Cal/Mol-Kelvin
 Total                   17.046             12.386             65.194
 Electronic               0.000              0.000              0.000
 Translational            0.889              2.981             38.341
 Rotational               0.889              2.981             23.307
 Vibrational             15.269              6.424              3.546
 Vibration     1          0.722              1.588              1.195
 Vibration     2          0.750              1.513              1.039
 Vibration     3          0.874              1.208              0.613

                       ! Non-Optimized Parameters !

 1\1\GINC-N2108\Freq\RMP2-FC\Aug-CC-pVTZ\H1N1O3\CGAVINH\06-Mar-2022\1\\
 #p freq mp2/aug-cc-pvtz density=current\\title\\0,1\H\O,1,r1\O,2,r2,1,
 a1\N,3,r3,2,a2,1,d1,0\O,4,r4,3,a3,2,d2,0\\r1=0.98537664\r2=1.42673666\
 r3=1.40184564\r4=1.19478846\a1=100.6355057\a2=113.13777052\a3=114.3339
 2022\d1=0.\d2=0.\\Version=ES64L-G16RevB.01\State=1-A'\HF=-279.5044937\
 MP2=-280.4550808\RMSD=4.903e-09\RMSF=2.609e-03\ZeroPoint=0.0231631\The
 rmal=0.0271647\Dipole=-0.0946604,0.,-0.4589699\DipoleDeriv=0.3120151,0
 .,0.0393495,0.,0.2977847,0.,-0.0219825,0.,0.19138,-0.5226546,0.,0.2791

 Normal termination of Gaussian 16 at Sun Mar  6 19:08:34 2022.
