 Gaussian 16, Revision B.01,
 Gaussian 16:  ES64L-G16RevB.01 20-Dec-2017

 ---------------------------------------
 #p freq mp2/aug-cc-pvtz density=current
 ---------------------------------------

 -----
 title
 -----
 Symbolic Z-matrix:
 Charge =  0 Multiplicity = 1

                         Standard orientation:
 ---------------------------------------------------------------------
 Center     Atomic      Atomic             Coordinates (Angstroms)
 Number     Number       Type             X           Y           Z
 ---------------------------------------------------------------------
      1          1           0        1.550067    1.689726    0.000000
      2          8           0        1.454110    0.725513    0.000000
      3          8           0        0.000000    0.676980    0.000000
      4          7           0       -0.262985   -0.757903    0.000000
      5          8           0       -1.417756   -0.950543    0.000000
 ---------------------------------------------------------------------

 SCF Done:  E(RHF) =  -279.501584677     A.U. after   14 cycles
 E2 =    -0.9451041745D+00 EUMP2 =    -0.28044668885108D+03
 E2 =    -0.9451041745D+00 EUMP2 =    -0.28044668885108D+03

 The electronic state is 1-A'.
 Alpha  occ. eigenvalues --  -20.69121 -20.68457 -20.66048 -15.81256  -1.62339
 Alpha  occ. eigenvalues --   -1.49632  -1.25504  -0.94787  -0.77320  -0.75892
 Alpha  occ. eigenvalues --   -0.71165  -0.67957  -0.62076  -0.59011  -0.48559
 Alpha  occ. eigenvalues --   -0.47153
 Alpha virt. eigenvalues --    0.02957   0.07200   0.08579   0.10173   0.13400
 Alpha virt. eigenvalues --    0.13400   0.14405   0.15458   0.17818   0.19421
 Alpha virt. eigenvalues --    0.19978   0.20621   0.22082   0.23465   0.23727

 Mulliken charges:
               1
     1  H    0.250289
     2  O   -0.199897
     3  O   -0.148253
     4  N    0.290834
     5  O   -0.192973
 Sum of Mulliken charges =  -0.00000

 Dipole moment (field-independent basis, Debye):
    X=              0.5059    Y=              1.3709    Z=              0.0000  Tot=              1.4613
 Quadrupole moment (field-independent basis, Debye-Ang):
   XX=            -22.4439   YY=            -18.6209   ZZ=            -22.0143
   XY=              3.2753   XZ=              0.0000   YZ=             -0.0000

  Exact polarizability:  34.021   9.545  30.372  -0.000   0.000  17.942
 Approx polarizability:  28.984   5.207  23.602  -0.000  -0.000  15.529

 ******    1 imaginary frequencies (negative Signs) ******

                      1                      2                      3
                     A"                     A"                     A'
 Frequencies --   -271.7928               228.0223               340.9746
 Red. masses --      1.1419                10.2124                 8.5884
 Frc consts  --      0.0497                 0.3128                 0.5883
 IR Inten    --    124.5178                 0.9857                 5.8073

                      4                      5                      6
                     A'                     A'                     A'
 Frequencies --    445.0610               786.4154               966.5702
 Red. masses --     12.4171                12.9085                15.3373
 Frc consts  --      1.4491                 4.7036                 8.4424
 IR Inten    --    199.3504               174.0151                24.0293

                      7                      8                      9
                     A'                     A'                     A'
 Frequencies --   1371.0957              1677.0983              3778.8384
 Red. masses --      1.1336                13.1732                 1.0675
 Frc consts  --      1.2556                21.8303                 8.9816
 IR Inten    --    154.4921               142.7375                83.1618

 - Thermochemistry -
 -------------------
 Temperature   298.150 Kelvin.  Pressure   1.00000 Atm.
 Atom     1 has atomic number  1 and mass   1.00783

 Molecular mass:    62.99564 amu.
 Principal axes and moments of inertia in atomic units:
                           1         2         3
     Eigenvalues --    32.71656 361.53184 394.24840
           X            0.80832  -0.58875   0.00000
           Y            0.58875   0.80832   0.00000
           Z            0.00000   0.00000   1.00000
 This molecule is an asymmetric top.
 Rotational symmetry number  1.
 Rotational temperatures (Kelvin)      2.64740     0.23957     0.21969
 Rotational constants (GHZ):          55.16292     4.99193     4.57768
    1 imaginary frequencies ignored.
 Zero-point vibrational energy      57385.3 (Joules/Mol)
                                   13.71542 (Kcal/Mol)
 Warning -- explicit consideration of   3 degrees of freedom as
           vibrations may cause significant error
 Vibrational temperatures:    328.07   490.59   640.34  1131.48  1390.68
          (Kelvin)           1972.70  2412.97  5436.91

 Zero-point correction=                           0.021857 (Hartree/Particle)
 Thermal correction to Energy=                    0.025982
 Thermal correction to Enthalpy=                  0.026926
 Thermal correction to Gibbs Free Energy=        -0.004273
 Sum of electronic and zero-point Energies=           -280.424832
 Sum of electronic and thermal Energies=              -280.420707
 Sum of electronic and thermal Enthalpies=            -280.419763
 Sum of electronic and thermal Free Energies=         -280.450962

                     E (Thermal)             CV                S
                      KCal/Mol        Cal/Mol-Kelvin    Cal/Mol-Kelvin
 Total                   16.304             11.970             65.665
 Electronic               0.000              0.000              0.000
 Translational            0.889              2.981             38.341
 Rotational               0.889              2.981             23.060
 Vibrational             14.527              6.009              4.264
 Vibration     1          0.651              1.798              1.894
 Vibration     2          0.720              1.594              1.208
 Vibration     3          0.804              1.372              0.811

                       ! Non-Optimized Parameters !

 1\1\GINC-N2228\Freq\RMP2-FC\Aug-CC-pVTZ\H1N1O3\CGAVINH\21-Feb-2022\1\\
 #p freq mp2/aug-cc-pvtz density=current\\title\\0,1\H\O,1,r1\O,2,r2,1,
 a1\N,3,r3,2,a2,1,d1,0\O,4,r4,3,a3,2,d2,0\\r1=0.96897556\r2=1.45491931\
 r3=1.45878406\r4=1.17072885\a1=97.59494903\a2=102.29752444\a3=109.8568
 0938\d1=180.\d2=180.\\Version=ES64L-G16RevB.01\State=1-A'\HF=-279.5015
 847\MP2=-280.4466889\RMSD=3.828e-09\RMSF=1.471e-03\ZeroPoint=0.0218569
 \Thermal=0.025982\Dipole=-0.1446365,0.,-0.5564096\DipoleDeriv=0.266808
 7,0.,0.0485193,0.,0.3557,0.,0.0827935,0.,0.2767734,-0.3264444,0.,-0.20

 Normal termination of Gaussian 16 at Mon Feb 21 20:51:24 2022.
