 Gaussian 16, Revision B.01,
 Gaussian 16:  ES64L-G16RevB.01 20-Dec-2017

 ---------------------------------------
 #p freq mp2/aug-cc-pvtz density=current
 ---------------------------------------

 -----
 title
 -----
 Symbolic Z-matrix:
 Charge =  0 Multiplicity = 1

                         Standard orientation:
 ---------------------------------------------------------------------
 Center     Atomic      Atomic             Coordinates (Angstroms)
 Number     Number       Type             X           Y           Z
 ---------------------------------------------------------------------
      1          1           0        0.543663   -1.137121    0.078083
      2          8           0        1.276722   -0.484415   -0.008897
      3          8           0        0.542725    0.738981    0.002427
      4          7           0       -0.825526    0.550968    0.003032
      5          8           0       -1.165070   -0.594522   -0.005944
 ---------------------------------------------------------------------

 SCF Done:  E(RHF) =  -279.506382049     A.U. after   16 cycles
 E2 =    -0.9487681136D+00 EUMP2 =    -0.28045515016231D+03
 E2 =    -0.9487681136D+00 EUMP2 =    -0.28045515016231D+03

 The electronic state is 1-A.
 Alpha  occ. eigenvalues --  -20.71973 -20.68705 -20.66842 -15.82584  -1.64410
 Alpha  occ. eigenvalues --   -1.50511  -1.29373  -0.96025  -0.83428  -0.75880
 Alpha  occ. eigenvalues --   -0.74005  -0.63794  -0.61918  -0.61715  -0.50457
 Alpha  occ. eigenvalues --   -0.49758
 Alpha virt. eigenvalues --    0.03501   0.06039   0.09512   0.10040   0.11932
 Alpha virt. eigenvalues --    0.12264   0.14967   0.15194   0.17701   0.18086
 Alpha virt. eigenvalues --    0.18937   0.21152   0.21682   0.24239   0.24628

 Mulliken charges:
               1
     1  H    0.278286
     2  O   -0.273833
     3  O    0.037324
     4  N    0.154377
     5  O   -0.196155
 Sum of Mulliken charges =  -0.00000

 Dipole moment (field-independent basis, Debye):
    X=             -0.5990    Y=             -0.9127    Z=              0.1241  Tot=              1.0988
 Quadrupole moment (field-independent basis, Debye-Ang):
   XX=            -25.1074   YY=            -21.2201   ZZ=            -21.9171
   XY=             -0.3915   XZ=              0.0581   YZ=             -0.2222

  Exact polarizability:  34.482   0.730  26.280   0.008  -0.047  17.631
 Approx polarizability:  26.124   1.632  26.081  -0.065  -0.042  15.530

                      1                      2                      3
                      A                      A                      A
 Frequencies --    340.3886               400.0653               519.8384
 Red. masses --      1.5319                 6.5072                 3.1509
 Frc consts  --      0.1046                 0.6136                 0.5017
 IR Inten    --     63.0478                 9.4494                22.9611

                      4                      5                      6
                      A                      A                      A
 Frequencies --    711.5679               837.0340               970.9823
 Red. masses --     12.8815                12.3770                 9.8004
 Frc consts  --      3.8428                 5.1092                 5.4440
 IR Inten    --    217.7074                31.3928                12.7075

                      7                      8                      9
                      A                      A                      A
 Frequencies --   1436.0428              1569.8962              3489.1036
 Red. masses --      1.3026                 6.4277                 1.0638
 Frc consts  --      1.5827                 9.3336                 7.6302
 IR Inten    --     79.5599               149.7192                41.8331

 - Thermochemistry -
 -------------------
 Temperature   298.150 Kelvin.  Pressure   1.00000 Atm.
 Atom     1 has atomic number  1 and mass   1.00783

 Molecular mass:    62.99564 amu.
 Principal axes and moments of inertia in atomic units:
                           1         2         3
     Eigenvalues --    84.53920 222.65050 307.13447
           X            0.99987  -0.01601   0.00072
           Y            0.01601   0.99986  -0.00380
           Z           -0.00066   0.00381   0.99999
 This molecule is an asymmetric top.
 Rotational symmetry number  1.
 Rotational temperatures (Kelvin)      1.02454     0.38901     0.28201
 Rotational constants (GHZ):          21.34798     8.10571     5.87606
 Zero-point vibrational energy      61457.7 (Joules/Mol)
                                   14.68873 (Kcal/Mol)
 Warning -- explicit consideration of   3 degrees of freedom as
           vibrations may cause significant error
 Vibrational temperatures:    489.74   575.60   747.93  1023.79  1204.31
          (Kelvin)           1397.03  2066.15  2258.73  5020.04

 Zero-point correction=                           0.023408 (Hartree/Particle)
 Thermal correction to Energy=                    0.027359
 Thermal correction to Enthalpy=                  0.028304
 Thermal correction to Gibbs Free Energy=        -0.002579
 Sum of electronic and zero-point Energies=           -280.431742
 Sum of electronic and thermal Energies=              -280.427791
 Sum of electronic and thermal Enthalpies=            -280.426847
 Sum of electronic and thermal Free Energies=         -280.457729

                     E (Thermal)             CV                S
                      KCal/Mol        Cal/Mol-Kelvin    Cal/Mol-Kelvin
 Total                   17.168             12.193             64.998
 Electronic               0.000              0.000              0.000
 Translational            0.889              2.981             38.341
 Rotational               0.889              2.981             23.273
 Vibrational             15.391              6.232              3.384
 Vibration     1          0.720              1.595              1.210
 Vibration     2          0.766              1.470              0.962
 Vibration     3          0.875              1.206              0.610

                       ! Non-Optimized Parameters !

 1\1\GINC-N2228\Freq\RMP2-FC\Aug-CC-pVTZ\H1N1O3\CGAVINH\06-Mar-2022\1\\
 #p freq mp2/aug-cc-pvtz density=current\\title\\0,1\H\O,1,r1\O,2,r2,1,
 a1\N,3,r3,2,a2,1,d1,0\O,4,r4,3,a3,2,d2,0\\r1=0.98537664\r2=1.42673666\
 r3=1.38110764\r4=1.19478846\a1=100.6355057\a2=113.13777052\a3=114.3339
 2022\d1=-5.4058025\d2=0.\\Version=ES64L-G16RevB.01\State=1-A\HF=-279.5
 06382\MP2=-280.4551502\RMSD=6.311e-09\RMSF=6.065e-04\ZeroPoint=0.02340
 8\Thermal=0.0273595\Dipole=-0.1111461,0.0147865,-0.4175034\DipoleDeriv
 =0.3152901,-0.0090785,0.0393036,-0.0125934,0.2989637,-0.0029639,-0.022

 Normal termination of Gaussian 16 at Sun Mar  6 19:56:18 2022.
