 Gaussian 16, Revision B.01,
 Gaussian 16:  ES64L-G16RevB.01 20-Dec-2017

 ---------------------------------------
 #p freq mp2/aug-cc-pvtz density=current
 ---------------------------------------

 -----
 title
 -----
 Symbolic Z-matrix:
 Charge =  0 Multiplicity = 1

                         Standard orientation:
 ---------------------------------------------------------------------
 Center     Atomic      Atomic             Coordinates (Angstroms)
 Number     Number       Type             X           Y           Z
 ---------------------------------------------------------------------
      1          1           0        1.121538   -0.601109   -0.000000
      2          8           0        1.315585    0.364973    0.000000
      3          8           0       -0.000000    0.917073    0.000000
      4          7           0       -0.991872   -0.043994   -0.000000
      5          8           0       -0.587889   -1.168413   -0.000000
 ---------------------------------------------------------------------

 SCF Done:  E(RHF) =  -279.506564741     A.U. after   14 cycles
 E2 =    -0.9486522473D+00 EUMP2 =    -0.28045521698808D+03
 E2 =    -0.9486522473D+00 EUMP2 =    -0.28045521698808D+03

 The electronic state is 1-A'.
 Alpha  occ. eigenvalues --  -20.71990 -20.68680 -20.66810 -15.82565  -1.64369
 Alpha  occ. eigenvalues --   -1.50472  -1.29372  -0.96037  -0.83404  -0.75864
 Alpha  occ. eigenvalues --   -0.73969  -0.63713  -0.61861  -0.61806  -0.50421
 Alpha  occ. eigenvalues --   -0.49743
 Alpha virt. eigenvalues --    0.03492   0.06058   0.09516   0.10041   0.11987
 Alpha virt. eigenvalues --    0.12260   0.14930   0.15166   0.17760   0.18058
 Alpha virt. eigenvalues --    0.18985   0.21111   0.21659   0.24263   0.24637

 Mulliken charges:
               1
     1  H    0.279964
     2  O   -0.273934
     3  O    0.037587
     4  N    0.153087
     5  O   -0.196704
 Sum of Mulliken charges =  -0.00000

 Dipole moment (field-independent basis, Debye):
    X=              0.0705    Y=             -1.1006    Z=             -0.0000  Tot=              1.1028
 Quadrupole moment (field-independent basis, Debye-Ang):
   XX=            -23.3482   YY=            -22.9392   ZZ=            -21.9363
   XY=             -2.0087   XZ=             -0.0000   YZ=             -0.0000

  Exact polarizability:  30.932   4.110  29.869  -0.000   0.000  17.632
 Approx polarizability:  24.540   0.483  27.678   0.000   0.000  15.523

                      1                      2                      3
                     A"                     A'                     A"
 Frequencies --    343.9028               396.8628               524.0154
 Red. masses --      1.5520                 6.9982                 2.9357
 Frc consts  --      0.1081                 0.6494                 0.4750
 IR Inten    --     63.8678                 7.6961                25.5022

                      4                      5                      6
                     A'                     A'                     A'
 Frequencies --    710.6644               835.2306               969.8510
 Red. masses --     13.2966                12.0465                 9.7564
 Frc consts  --      3.9566                 4.9514                 5.4069
 IR Inten    --    217.7779                30.4711                12.7575

                      7                      8                      9
                     A'                     A'                     A'
 Frequencies --   1425.5562              1568.3082              3491.9379
 Red. masses --      1.2895                 7.0182                 1.0639
 Frc consts  --      1.5439                10.1704                 7.6430
 IR Inten    --     79.2579               150.0133                41.8323

 - Thermochemistry -
 -------------------
 Temperature   298.150 Kelvin.  Pressure   1.00000 Atm.
 Atom     1 has atomic number  1 and mass   1.00783

 Molecular mass:    62.99564 amu.
 Principal axes and moments of inertia in atomic units:
                           1         2         3
     Eigenvalues --    84.61235 222.64208 307.25443
           X            0.79683  -0.60420   0.00000
           Y            0.60420   0.79683   0.00000
           Z            0.00000  -0.00000   1.00000
 This molecule is an asymmetric top.
 Rotational symmetry number  1.
 Rotational temperatures (Kelvin)      1.02366     0.38903     0.28190
 Rotational constants (GHZ):          21.32952     8.10602     5.87377
 Zero-point vibrational energy      61406.3 (Joules/Mol)
                                   14.67645 (Kcal/Mol)
 Warning -- explicit consideration of   3 degrees of freedom as
           vibrations may cause significant error
 Vibrational temperatures:    494.80   571.00   753.94  1022.49  1201.71
          (Kelvin)           1395.40  2051.06  2256.45  5024.12

 Zero-point correction=                           0.023388 (Hartree/Particle)
 Thermal correction to Energy=                    0.027337
 Thermal correction to Enthalpy=                  0.028282
 Thermal correction to Gibbs Free Energy=        -0.002597
 Sum of electronic and zero-point Energies=           -280.431829
 Sum of electronic and thermal Energies=              -280.427880
 Sum of electronic and thermal Enthalpies=            -280.426935
 Sum of electronic and thermal Free Energies=         -280.457814

                     E (Thermal)             CV                S
                      KCal/Mol        Cal/Mol-Kelvin    Cal/Mol-Kelvin
 Total                   17.155             12.194             64.989
 Electronic               0.000              0.000              0.000
 Translational            0.889              2.981             38.341
 Rotational               0.889              2.981             23.275
 Vibrational             15.377              6.232              3.374
 Vibration     1          0.723              1.588              1.194
 Vibration     2          0.763              1.477              0.974
 Vibration     3          0.879              1.197              0.601

                       ! Non-Optimized Parameters !

 1\1\GINC-N2398\Freq\RMP2-FC\Aug-CC-pVTZ\H1N1O3\CGAVINH\06-Mar-2022\1\\
 #p freq mp2/aug-cc-pvtz density=current\\title\\0,1\H\O,1,r1\O,2,r2,1,
 a1\N,3,r3,2,a2,1,d1,0\O,4,r4,3,a3,2,d2,0\\r1=0.98537664\r2=1.42673666\
 r3=1.38110764\r4=1.19478846\a1=101.40866739\a2=113.13777052\a3=114.333
 92022\d1=0.\d2=0.\\Version=ES64L-G16RevB.01\State=1-A'\HF=-279.5065647
 \MP2=-280.455217\RMSD=4.395e-09\RMSF=7.783e-04\ZeroPoint=0.0233884\The
 rmal=0.0273374\Dipole=-0.1124799,0.,-0.41906\DipoleDeriv=0.3151224,0.,
 0.0407932,0.,0.2998804,0.,-0.0177287,0.,0.1982926,-0.5292549,0.,0.2741

 Normal termination of Gaussian 16 at Sun Mar  6 19:23:19 2022.
