 Gaussian 16, Revision B.01,
 Gaussian 16:  ES64L-G16RevB.01 20-Dec-2017

 ---------------------------------------
 #p freq mp2/aug-cc-pvtz density=current
 ---------------------------------------

 -----
 title
 -----
 Symbolic Z-matrix:
 Charge =  0 Multiplicity = 1

                         Standard orientation:
 ---------------------------------------------------------------------
 Center     Atomic      Atomic             Coordinates (Angstroms)
 Number     Number       Type             X           Y           Z
 ---------------------------------------------------------------------
      1          1           0        1.111827   -0.585558    0.000000
      2          8           0        1.315777    0.364943    0.000000
      3          8           0       -0.000000    0.916584    0.000000
      4          7           0       -0.991536   -0.044829    0.000000
      5          8           0       -0.587161   -1.169107    0.000000
 ---------------------------------------------------------------------

 SCF Done:  E(RHF) =  -279.507079546     A.U. after   14 cycles
 E2 =    -0.9480188438D+00 EUMP2 =    -0.28045509839009D+03
 E2 =    -0.9480188438D+00 EUMP2 =    -0.28045509839009D+03

 The electronic state is 1-A'.
 Alpha  occ. eigenvalues --  -20.72000 -20.68712 -20.66782 -15.82603  -1.64453
 Alpha  occ. eigenvalues --   -1.50631  -1.29623  -0.96118  -0.83532  -0.75909
 Alpha  occ. eigenvalues --   -0.74019  -0.64035  -0.61914  -0.61868  -0.50457
 Alpha  occ. eigenvalues --   -0.49807
 Alpha virt. eigenvalues --    0.03517   0.06031   0.09504   0.10042   0.11962
 Alpha virt. eigenvalues --    0.12257   0.14955   0.15214   0.17730   0.18028
 Alpha virt. eigenvalues --    0.18974   0.21118   0.21684   0.24210   0.24632

 Mulliken charges:
               1
     1  H    0.269725
     2  O   -0.264961
     3  O    0.037871
     4  N    0.153304
     5  O   -0.195939
 Sum of Mulliken charges =  -0.00000

 Dipole moment (field-independent basis, Debye):
    X=              0.0556    Y=             -1.0819    Z=              0.0000  Tot=              1.0834
 Quadrupole moment (field-independent basis, Debye-Ang):
   XX=            -23.3595   YY=            -22.9606   ZZ=            -21.9168
   XY=             -1.9621   XZ=              0.0000   YZ=              0.0000

  Exact polarizability:  30.840   4.143  29.765   0.000   0.000  17.588
 Approx polarizability:  24.493   0.497  27.547  -0.000  -0.000  15.495

 ******    1 imaginary frequencies (negative Signs) ******

                      1                      2                      3
                     A"                     A'                     A"
 Frequencies --   -163.7841               393.0155               500.1450
 Red. masses --      1.1959                 6.8863                 6.6525
 Frc consts  --      0.0189                 0.6267                 0.9805
 IR Inten    --     82.7843                 8.0075                 6.8137

                      4                      5                      6
                     A'                     A'                     A'
 Frequencies --    709.9637               837.6094               965.4379
 Red. masses --     12.9742                12.5808                 8.8355
 Frc consts  --      3.8530                 5.2004                 4.8521
 IR Inten    --    218.7999                30.7911                15.1284

                      7                      8                      9
                     A'                     A'                     A'
 Frequencies --   1408.6492              1566.9866              3658.5191
 Red. masses --      1.2803                 7.9177                 1.0642
 Frc consts  --      1.4968                11.4546                 8.3924
 IR Inten    --     76.3490               148.0183                41.1636

 - Thermochemistry -
 -------------------
 Temperature   298.150 Kelvin.  Pressure   1.00000 Atm.
 Atom     1 has atomic number  1 and mass   1.00783

 Molecular mass:    62.99564 amu.
 Principal axes and moments of inertia in atomic units:
                           1         2         3
     Eigenvalues --    84.45581 222.64713 307.10294
           X            0.79648  -0.60466   0.00000
           Y            0.60466   0.79648   0.00000
           Z            0.00000   0.00000   1.00000
 This molecule is an asymmetric top.
 Rotational symmetry number  1.
 Rotational temperatures (Kelvin)      1.02555     0.38902     0.28204
 Rotational constants (GHZ):          21.36906     8.10584     5.87667
    1 imaginary frequencies ignored.
 Zero-point vibrational energy      60054.5 (Joules/Mol)
                                   14.35337 (Kcal/Mol)
 Warning -- explicit consideration of   2 degrees of freedom as
           vibrations may cause significant error
 Vibrational temperatures:    565.46   719.60  1021.48  1205.13  1389.05
          (Kelvin)           2026.73  2254.54  5263.79

 Zero-point correction=                           0.022874 (Hartree/Particle)
 Thermal correction to Energy=                    0.026476
 Thermal correction to Enthalpy=                  0.027420
 Thermal correction to Gibbs Free Energy=        -0.002925
 Sum of electronic and zero-point Energies=           -280.432225
 Sum of electronic and thermal Energies=              -280.428622
 Sum of electronic and thermal Enthalpies=            -280.427678
 Sum of electronic and thermal Free Energies=         -280.458023

                     E (Thermal)             CV                S
                      KCal/Mol        Cal/Mol-Kelvin    Cal/Mol-Kelvin
 Total                   16.614             10.676             63.866
 Electronic               0.000              0.000              0.000
 Translational            0.889              2.981             38.341
 Rotational               0.889              2.981             23.272
 Vibrational             14.837              4.714              2.253
 Vibration     1          0.760              1.485              0.989
 Vibration     2          0.856              1.250              0.658

                       ! Non-Optimized Parameters !

 1\1\GINC-N2219\Freq\RMP2-FC\Aug-CC-pVTZ\H1N1O3\CGAVINH\06-Mar-2022\1\\
 #p freq mp2/aug-cc-pvtz density=current\\title\\0,1\H\O,1,r1\O,2,r2,1,
 a1\N,3,r3,2,a2,1,d1,0\O,4,r4,3,a3,2,d2,0\\r1=0.97213588\r2=1.42673666\
 r3=1.38110764\r4=1.19478846\a1=100.6355057\a2=113.13777052\a3=114.3339
 2022\d1=0.\d2=0.\\Version=ES64L-G16RevB.01\State=1-A'\HF=-279.5070795\
 MP2=-280.4550984\RMSD=4.237e-09\RMSF=4.145e-03\ZeroPoint=0.0228735\The
 rmal=0.0264762\Dipole=-0.1107064,0.,-0.4116055\DipoleDeriv=0.3118282,0
 .,0.0397391,0.,0.3001383,0.,-0.0178865,0.,0.1968406,-0.5271572,0.,0.28

 Normal termination of Gaussian 16 at Sun Mar  6 18:55:05 2022.
