 Gaussian 16, Revision B.01,
 Gaussian 16:  ES64L-G16RevB.01 20-Dec-2017

 ---------------------------------------
 #p freq mp2/aug-cc-pvtz density=current
 ---------------------------------------

 -----
 title
 -----
 Symbolic Z-matrix:
 Charge =  0 Multiplicity = 1

                         Standard orientation:
 ---------------------------------------------------------------------
 Center     Atomic      Atomic             Coordinates (Angstroms)
 Number     Number       Type             X           Y           Z
 ---------------------------------------------------------------------
      1          1           0        1.553766    1.679602    0.000000
      2          8           0        1.454278    0.715747    0.000000
      3          8           0        0.000000    0.672540    0.000000
      4          7           0       -0.268239   -0.761370   -0.000000
      5          8           0       -1.413789   -0.932039   -0.000000
 ---------------------------------------------------------------------

 SCF Done:  E(RHF) =  -279.503569914     A.U. after   14 cycles
 E2 =    -0.9429202012D+00 EUMP2 =    -0.28044649011543D+03
 E2 =    -0.9429202012D+00 EUMP2 =    -0.28044649011543D+03

 The electronic state is 1-A'.
 Alpha  occ. eigenvalues --  -20.68791 -20.68483 -20.65836 -15.81100  -1.63447
 Alpha  occ. eigenvalues --   -1.49577  -1.25313  -0.94637  -0.77437  -0.76253
 Alpha  occ. eigenvalues --   -0.71458  -0.68079  -0.62286  -0.58858  -0.48413
 Alpha  occ. eigenvalues --   -0.47002
 Alpha virt. eigenvalues --    0.02997   0.07555   0.08573   0.10172   0.13372
 Alpha virt. eigenvalues --    0.13412   0.14435   0.15484   0.17849   0.19402
 Alpha virt. eigenvalues --    0.20029   0.20638   0.22122   0.23651   0.23747

 Mulliken charges:
               1
     1  H    0.249830
     2  O   -0.202614
     3  O   -0.149966
     4  N    0.292974
     5  O   -0.190224
 Sum of Mulliken charges =  -0.00000

 Dipole moment (field-independent basis, Debye):
    X=              0.4599    Y=              1.3049    Z=              0.0000  Tot=              1.3835
 Quadrupole moment (field-independent basis, Debye-Ang):
   XX=            -22.4016   YY=            -18.6158   ZZ=            -21.9895
   XY=              3.2991   XZ=             -0.0000   YZ=             -0.0000

  Exact polarizability:  33.870   9.336  30.087   0.000   0.000  17.905
 Approx polarizability:  28.738   5.008  23.415   0.000   0.000  15.468

 ******    1 imaginary frequencies (negative Signs) ******

                      1                      2                      3
                     A"                     A"                     A'
 Frequencies --   -267.6807               178.7548               330.1605
 Red. masses --      1.1571                 9.1830                 8.7673
 Frc consts  --      0.0488                 0.1729                 0.5631
 IR Inten    --    123.5940                 1.8826                 2.3968

                      4                      5                      6
                     A'                     A'                     A'
 Frequencies --    458.9913               784.3040               968.5702
 Red. masses --     12.1516                12.6320                15.4070
 Frc consts  --      1.5083                 4.5782                 8.5159
 IR Inten    --    200.7030               171.4729                20.9112

                      7                      8                      9
                     A'                     A'                     A'
 Frequencies --   1372.0452              1759.6292              3778.5834
 Red. masses --      1.1294                13.9585                 1.0675
 Frc consts  --      1.2527                25.4643                 8.9803
 IR Inten    --    147.4284               170.0585                81.5831

 - Thermochemistry -
 -------------------
 Temperature   298.150 Kelvin.  Pressure   1.00000 Atm.
 Atom     1 has atomic number  1 and mass   1.00783

 Molecular mass:    62.99564 amu.
 Principal axes and moments of inertia in atomic units:
                           1         2         3
     Eigenvalues --    32.79003 358.03149 390.82152
           X            0.81179  -0.58395   0.00000
           Y            0.58395   0.81179   0.00000
           Z           -0.00000   0.00000   1.00000
 This molecule is an asymmetric top.
 Rotational symmetry number  1.
 Rotational temperatures (Kelvin)      2.64147     0.24192     0.22162
 Rotational constants (GHZ):          55.03932     5.04073     4.61781
    1 imaginary frequencies ignored.
 Zero-point vibrational energy      57606.4 (Joules/Mol)
                                   13.76826 (Kcal/Mol)
 Warning -- explicit consideration of   3 degrees of freedom as
           vibrations may cause significant error
 Vibrational temperatures:    257.19   475.03   660.39  1128.44  1393.56
          (Kelvin)           1974.07  2531.71  5436.54

 Zero-point correction=                           0.021941 (Hartree/Particle)
 Thermal correction to Energy=                    0.026143
 Thermal correction to Enthalpy=                  0.027087
 Thermal correction to Gibbs Free Energy=        -0.004321
 Sum of electronic and zero-point Energies=           -280.424549
 Sum of electronic and thermal Energies=              -280.420347
 Sum of electronic and thermal Enthalpies=            -280.419403
 Sum of electronic and thermal Free Energies=         -280.450811

                     E (Thermal)             CV                S
                      KCal/Mol        Cal/Mol-Kelvin    Cal/Mol-Kelvin
 Total                   16.405             12.022             66.105
 Electronic               0.000              0.000              0.000
 Translational            0.889              2.981             38.341
 Rotational               0.889              2.981             23.044
 Vibrational             14.628              6.060              4.720
 Vibration     1          0.629              1.868              2.341
 Vibration     2          0.713              1.615              1.259
 Vibration     3          0.817              1.341              0.769

                       ! Non-Optimized Parameters !

 1\1\GINC-N2129\Freq\RMP2-FC\Aug-CC-pVTZ\H1N1O3\CGAVINH\21-Feb-2022\1\\
 #p freq mp2/aug-cc-pvtz density=current\\title\\0,1\H\O,1,r1\O,2,r2,1,
 a1\N,3,r3,2,a2,1,d1,0\O,4,r4,3,a3,2,d2,0\\r1=0.96897556\r2=1.45491931\
 r3=1.45878406\r4=1.15819427\a1=97.59494903\a2=102.29752444\a3=109.0695
 5123\d1=180.\d2=180.\\Version=ES64L-G16RevB.01\State=1-A'\HF=-279.5035
 699\MP2=-280.4464901\RMSD=3.464e-09\RMSF=7.255e-03\ZeroPoint=0.0219411
 \Thermal=0.0261431\Dipole=-0.1272539,0.,-0.5292423\DipoleDeriv=0.26632
 74,0.,0.0480916,0.,0.355132,0.,0.0813105,0.,0.2741052,-0.3257382,0.,-0

 Normal termination of Gaussian 16 at Mon Feb 21 20:34:15 2022.
