 Gaussian 16, Revision B.01,
 Gaussian 16:  ES64L-G16RevB.01 20-Dec-2017

 ---------------------------------------
 #p freq mp2/aug-cc-pvtz density=current
 ---------------------------------------

 -----
 title
 -----
 Symbolic Z-matrix:
 Charge =  0 Multiplicity = 1

                         Standard orientation:
 ---------------------------------------------------------------------
 Center     Atomic      Atomic             Coordinates (Angstroms)
 Number     Number       Type             X           Y           Z
 ---------------------------------------------------------------------
      1          1           0        1.550586    1.684810   -0.000000
      2          8           0        1.454134    0.720647   -0.000000
      3          8           0        0.000000    0.672859   -0.000000
      4          7           0       -0.263721   -0.761889    0.000000
      5          8           0       -1.417202   -0.937454    0.000000
 ---------------------------------------------------------------------

 SCF Done:  E(RHF) =  -279.502338231     A.U. after   14 cycles
 E2 =    -0.9443706464D+00 EUMP2 =    -0.28044670887728D+03
 E2 =    -0.9443706464D+00 EUMP2 =    -0.28044670887728D+03

 The electronic state is 1-A'.
 Alpha  occ. eigenvalues --  -20.68995 -20.68446 -20.65947 -15.81226  -1.62727
 Alpha  occ. eigenvalues --   -1.49579  -1.25401  -0.94753  -0.77325  -0.76023
 Alpha  occ. eigenvalues --   -0.71262  -0.67984  -0.62125  -0.58917  -0.48489
 Alpha  occ. eigenvalues --   -0.47173
 Alpha virt. eigenvalues --    0.02974   0.07290   0.08588   0.10172   0.13388
 Alpha virt. eigenvalues --    0.13401   0.14416   0.15463   0.17833   0.19413
 Alpha virt. eigenvalues --    0.19995   0.20637   0.22095   0.23576   0.23741

 Mulliken charges:
               1
     1  H    0.250126
     2  O   -0.201910
     3  O   -0.148041
     4  N    0.292156
     5  O   -0.192332
 Sum of Mulliken charges =  -0.00000

 Dipole moment (field-independent basis, Debye):
    X=              0.4932    Y=              1.3432    Z=             -0.0000  Tot=              1.4309
 Quadrupole moment (field-independent basis, Debye-Ang):
   XX=            -22.4481   YY=            -18.6158   ZZ=            -22.0038
   XY=              3.2694   XZ=             -0.0000   YZ=              0.0000

  Exact polarizability:  33.960   9.429  30.199  -0.000  -0.000  17.920
 Approx polarizability:  28.921   5.074  23.487   0.000  -0.000  15.505

 ******    1 imaginary frequencies (negative Signs) ******

                      1                      2                      3
                     A"                     A"                     A'
 Frequencies --   -268.6589               215.0253               338.1053
 Red. masses --      1.1433                10.1568                 8.6618
 Frc consts  --      0.0486                 0.2767                 0.5834
 IR Inten    --    124.4736                 1.0238                 3.7157

                      4                      5                      6
                     A'                     A'                     A'
 Frequencies --    453.8725               785.1757               967.7033
 Red. masses --     12.2608                12.8303                15.3970
 Frc consts  --      1.4881                 4.6604                 8.4951
 IR Inten    --    200.2742               170.9185                22.1198

                      7                      8                      9
                     A'                     A'                     A'
 Frequencies --   1371.5731              1702.9245              3778.6649
 Red. masses --      1.1317                13.5025                 1.0675
 Frc consts  --      1.2543                23.0705                 8.9807
 IR Inten    --    151.0038               150.0990                82.2386

 - Thermochemistry -
 -------------------
 Temperature   298.150 Kelvin.  Pressure   1.00000 Atm.
 Atom     1 has atomic number  1 and mass   1.00783

 Molecular mass:    62.99564 amu.
 Principal axes and moments of inertia in atomic units:
                           1         2         3
     Eigenvalues --    32.82436 359.47637 392.30072
           X            0.81067  -0.58550   0.00000
           Y            0.58550   0.81067   0.00000
           Z            0.00000  -0.00000   1.00000
 This molecule is an asymmetric top.
 Rotational symmetry number  1.
 Rotational temperatures (Kelvin)      2.63871     0.24094     0.22078
 Rotational constants (GHZ):          54.98177     5.02047     4.60040
    1 imaginary frequencies ignored.
 Zero-point vibrational energy      57498.8 (Joules/Mol)
                                   13.74254 (Kcal/Mol)
 Warning -- explicit consideration of   3 degrees of freedom as
           vibrations may cause significant error
 Vibrational temperatures:    309.37   486.46   653.02  1129.69  1392.31
          (Kelvin)           1973.39  2450.13  5436.66

 Zero-point correction=                           0.021900 (Hartree/Particle)
 Thermal correction to Energy=                    0.026040
 Thermal correction to Enthalpy=                  0.026985
 Thermal correction to Gibbs Free Energy=        -0.004256
 Sum of electronic and zero-point Energies=           -280.424809
 Sum of electronic and thermal Energies=              -280.420668
 Sum of electronic and thermal Enthalpies=            -280.419724
 Sum of electronic and thermal Free Energies=         -280.450964

                     E (Thermal)             CV                S
                      KCal/Mol        Cal/Mol-Kelvin    Cal/Mol-Kelvin
 Total                   16.341             11.974             65.750
 Electronic               0.000              0.000              0.000
 Translational            0.889              2.981             38.341
 Rotational               0.889              2.981             23.053
 Vibrational             14.563              6.012              4.357
 Vibration     1          0.645              1.818              2.001
 Vibration     2          0.718              1.599              1.221
 Vibration     3          0.812              1.352              0.784

                       ! Non-Optimized Parameters !

 1\1\GINC-N2108\Freq\RMP2-FC\Aug-CC-pVTZ\H1N1O3\CGAVINH\21-Feb-2022\1\\
 #p freq mp2/aug-cc-pvtz density=current\\title\\0,1\H\O,1,r1\O,2,r2,1,
 a1\N,3,r3,2,a2,1,d1,0\O,4,r4,3,a3,2,d2,0\\r1=0.96897556\r2=1.45491931\
 r3=1.45878406\r4=1.16676507\a1=97.59494903\a2=102.29752444\a3=109.0695
 5123\d1=180.\d2=180.\\Version=ES64L-G16RevB.01\State=1-A'\HF=-279.5023
 382\MP2=-280.4467089\RMSD=3.684e-09\RMSF=2.320e-03\ZeroPoint=0.0219001
 \Thermal=0.0260404\Dipole=-0.1404812,0.,-0.5451552\DipoleDeriv=0.26635
 56,0.,0.048227,0.,0.3554217,0.,0.0818807,0.,0.2751155,-0.3273411,0.,-0

 Normal termination of Gaussian 16 at Mon Feb 21 20:32:44 2022.
