 Gaussian 16, Revision B.01,
 Gaussian 16:  ES64L-G16RevB.01 20-Dec-2017

 ---------------------------------------
 #p freq mp2/aug-cc-pvtz density=current
 ---------------------------------------

 -----
 title
 -----
 Symbolic Z-matrix:
 Charge =  0 Multiplicity = 1

                         Standard orientation:
 ---------------------------------------------------------------------
 Center     Atomic      Atomic             Coordinates (Angstroms)
 Number     Number       Type             X           Y           Z
 ---------------------------------------------------------------------
      1          1           0        1.120724   -0.587030    0.000000
      2          8           0        1.320001    0.377986    0.000000
      3          8           0        0.000000    0.919442    0.000000
      4          7           0       -0.984077   -0.049604    0.000000
      5          8           0       -0.599024   -1.180645    0.000000
 ---------------------------------------------------------------------

 SCF Done:  E(RHF) =  -279.506265667     A.U. after   14 cycles
 E2 =    -0.9487708876D+00 EUMP2 =    -0.28045503655415D+03
 E2 =    -0.9487708876D+00 EUMP2 =    -0.28045503655415D+03

 The electronic state is 1-A'.
 Alpha  occ. eigenvalues --  -20.72126 -20.68794 -20.66918 -15.82510  -1.64254
 Alpha  occ. eigenvalues --   -1.50710  -1.29440  -0.96080  -0.83289  -0.75864
 Alpha  occ. eigenvalues --   -0.73974  -0.63934  -0.62004  -0.61930  -0.50216
 Alpha  occ. eigenvalues --   -0.49830
 Alpha virt. eigenvalues --    0.03494   0.06106   0.09510   0.10059   0.11975
 Alpha virt. eigenvalues --    0.12270   0.14884   0.15181   0.17774   0.18038
 Alpha virt. eigenvalues --    0.18950   0.21113   0.21674   0.24261   0.24636

 Mulliken charges:
               1
     1  H    0.278494
     2  O   -0.274150
     3  O    0.037644
     4  N    0.154582
     5  O   -0.196570
 Sum of Mulliken charges =  -0.00000

 Dipole moment (field-independent basis, Debye):
    X=              0.0856    Y=             -1.0962    Z=              0.0000  Tot=              1.0995
 Quadrupole moment (field-independent basis, Debye-Ang):
   XX=            -23.4090   YY=            -22.9530   ZZ=            -21.9388
   XY=             -1.9620   XZ=              0.0000   YZ=              0.0000

  Exact polarizability:  30.972   4.256  30.040   0.000   0.000  17.649
 Approx polarizability:  24.496   0.671  27.844  -0.000  -0.000  15.529

                      1                      2                      3
                     A"                     A'                     A"
 Frequencies --    350.6443               377.2100               514.6770
 Red. masses --      1.5702                 7.1451                 2.8703
 Frc consts  --      0.1137                 0.5990                 0.4480
 IR Inten    --     62.7239                 7.5802                25.8329

                      4                      5                      6
                     A'                     A'                     A'
 Frequencies --    700.7791               839.7767               967.1074
 Red. masses --     13.1387                12.4049                10.0186
 Frc consts  --      3.8016                 5.1543                 5.5209
 IR Inten    --    215.1350                35.4455                13.8168

                      7                      8                      9
                     A'                     A'                     A'
 Frequencies --   1441.2622              1568.6423              3490.5241
 Red. masses --      1.3024                 6.3300                 1.0641
 Frc consts  --      1.5940                 9.1770                 7.6389
 IR Inten    --     78.6718               153.2620                40.3995

 - Thermochemistry -
 -------------------
 Temperature   298.150 Kelvin.  Pressure   1.00000 Atm.
 Atom     1 has atomic number  1 and mass   1.00783

 Molecular mass:    62.99564 amu.
 Principal axes and moments of inertia in atomic units:
                           1         2         3
     Eigenvalues --    83.90334 226.40325 310.30659
           X            0.79026  -0.61277   0.00000
           Y            0.61277   0.79026   0.00000
           Z            0.00000   0.00000   1.00000
 This molecule is an asymmetric top.
 Rotational symmetry number  1.
 Rotational temperatures (Kelvin)      1.03231     0.38256     0.27912
 Rotational constants (GHZ):          21.50977     7.97136     5.81599
 Zero-point vibrational energy      61312.3 (Joules/Mol)
                                   14.65400 (Kcal/Mol)
 Warning -- explicit consideration of   3 degrees of freedom as
           vibrations may cause significant error
 Vibrational temperatures:    504.50   542.72   740.51  1008.26  1208.25
          (Kelvin)           1391.45  2073.65  2256.93  5022.09

 Zero-point correction=                           0.023353 (Hartree/Particle)
 Thermal correction to Energy=                    0.027323
 Thermal correction to Enthalpy=                  0.028267
 Thermal correction to Gibbs Free Energy=        -0.002655
 Sum of electronic and zero-point Energies=           -280.431684
 Sum of electronic and thermal Energies=              -280.427713
 Sum of electronic and thermal Enthalpies=            -280.426769
 Sum of electronic and thermal Free Energies=         -280.457692

                     E (Thermal)             CV                S
                      KCal/Mol        Cal/Mol-Kelvin    Cal/Mol-Kelvin
 Total                   17.146             12.252             65.082
 Electronic               0.000              0.000              0.000
 Translational            0.889              2.981             38.341
 Rotational               0.889              2.981             23.293
 Vibrational             15.368              6.291              3.449
 Vibration     1          0.728              1.574              1.163
 Vibration     2          0.748              1.519              1.050
 Vibration     3          0.870              1.217              0.622

                       ! Non-Optimized Parameters !

 1\1\GINC-N2110\Freq\RMP2-FC\Aug-CC-pVTZ\H1N1O3\CGAVINH\06-Mar-2022\1\\
 #p freq mp2/aug-cc-pvtz density=current\\title\\0,1\H\O,1,r1\O,2,r2,1,
 a1\N,3,r3,2,a2,1,d1,0\O,4,r4,3,a3,2,d2,0\\r1=0.98537664\r2=1.42673666\
 r3=1.38110764\r4=1.19478846\a1=100.6355057\a2=113.13777052\a3=115.7584
 0379\d1=0.\d2=0.\\Version=ES64L-G16RevB.01\State=1-A'\HF=-279.5062657\
 MP2=-280.4550366\RMSD=4.275e-09\RMSF=3.156e-03\ZeroPoint=0.0233526\The
 rmal=0.0273232\Dipole=-0.1201986,0.,-0.4155529\DipoleDeriv=0.3135836,0
 .,0.0398684,0.,0.2986216,0.,-0.0205276,0.,0.1943898,-0.5318968,0.,0.27

 Normal termination of Gaussian 16 at Sun Mar  6 19:44:24 2022.
