 Gaussian 16, Revision B.01,
 Gaussian 16:  ES64L-G16RevB.01 20-Dec-2017

 ---------------------------------------
 #p freq mp2/aug-cc-pvtz density=current
 ---------------------------------------

 -----
 title
 -----
 Symbolic Z-matrix:
 Charge =  0 Multiplicity = 1

                         Standard orientation:
 ---------------------------------------------------------------------
 Center     Atomic      Atomic             Coordinates (Angstroms)
 Number     Number       Type             X           Y           Z
 ---------------------------------------------------------------------
      1          1           0        1.105969   -0.613227   -0.000000
      2          8           0        1.315893    0.366120   -0.000000
      3          8           0       -0.000000    0.917484    0.000000
      4          7           0       -0.991334   -0.044137    0.000000
      5          8           0       -0.586722   -1.168330    0.000000
 ---------------------------------------------------------------------

 SCF Done:  E(RHF) =  -279.505255515     A.U. after   14 cycles
 E2 =    -0.9497883487D+00 EUMP2 =    -0.28045504386342D+03
 E2 =    -0.9497883487D+00 EUMP2 =    -0.28045504386342D+03

 The electronic state is 1-A'.
 Alpha  occ. eigenvalues --  -20.71956 -20.68745 -20.66878 -15.82603  -1.64403
 Alpha  occ. eigenvalues --   -1.50382  -1.29087  -0.95939  -0.83399  -0.75873
 Alpha  occ. eigenvalues --   -0.73971  -0.63368  -0.61827  -0.61803  -0.50488
 Alpha  occ. eigenvalues --   -0.49682
 Alpha virt. eigenvalues --    0.03494   0.06017   0.09521   0.10033   0.11984
 Alpha virt. eigenvalues --    0.12264   0.14903   0.15191   0.17779   0.18040
 Alpha virt. eigenvalues --    0.18983   0.21081   0.21654   0.24308   0.24640

 Mulliken charges:
               1
     1  H    0.286627
     2  O   -0.284313
     3  O    0.037971
     4  N    0.155026
     5  O   -0.195310
 Sum of Mulliken charges =  -0.00000

 Dipole moment (field-independent basis, Debye):
    X=              0.0464    Y=             -1.1089    Z=             -0.0000  Tot=              1.1099
 Quadrupole moment (field-independent basis, Debye-Ang):
   XX=            -23.4023   YY=            -22.9182   ZZ=            -21.9535
   XY=             -1.9890   XZ=              0.0000   YZ=              0.0000

  Exact polarizability:  31.023   4.141  29.969  -0.000   0.000  17.658
 Approx polarizability:  24.647   0.547  27.801  -0.000   0.000  15.539

                      1                      2                      3
                     A'                     A"                     A"
 Frequencies --    400.7771               455.9702               616.2701
 Red. masses --      7.1879                 5.8595                 1.2276
 Frc consts  --      0.6802                 0.7178                 0.2747
 IR Inten    --      7.6471                12.9187                73.8503

                      4                      5                      6
                     A'                     A'                     A'
 Frequencies --    712.5854               835.7794               975.4911
 Red. masses --     13.6626                12.1828                10.6811
 Frc consts  --      4.0875                 5.0139                 5.9884
 IR Inten    --    215.3233                30.4742                10.6667

                      7                      8                      9
                     A'                     A'                     A'
 Frequencies --   1456.2541              1575.4322              3286.3497
 Red. masses --      1.3713                 4.9049                 1.0631
 Frc consts  --      1.7134                 7.1727                 6.7646
 IR Inten    --     82.8571               153.8636                44.7679

 - Thermochemistry -
 -------------------
 Temperature   298.150 Kelvin.  Pressure   1.00000 Atm.
 Atom     1 has atomic number  1 and mass   1.00783

 Molecular mass:    62.99564 amu.
 Principal axes and moments of inertia in atomic units:
                           1         2         3
     Eigenvalues --    84.61697 222.56211 307.17908
           X            0.79611  -0.60516   0.00000
           Y            0.60516   0.79611   0.00000
           Z           -0.00000   0.00000   1.00000
 This molecule is an asymmetric top.
 Rotational symmetry number  1.
 Rotational temperatures (Kelvin)      1.02360     0.38917     0.28197
 Rotational constants (GHZ):          21.32836     8.10893     5.87521
 Zero-point vibrational energy      61696.9 (Joules/Mol)
                                   14.74590 (Kcal/Mol)
 Warning -- explicit consideration of   3 degrees of freedom as
           vibrations may cause significant error
 Vibrational temperatures:    576.63   656.04   886.68  1025.25  1202.50
          (Kelvin)           1403.51  2095.22  2266.70  4728.32

 Zero-point correction=                           0.023499 (Hartree/Particle)
 Thermal correction to Energy=                    0.027277
 Thermal correction to Enthalpy=                  0.028221
 Thermal correction to Gibbs Free Energy=        -0.002365
 Sum of electronic and zero-point Energies=           -280.431545
 Sum of electronic and thermal Energies=              -280.427767
 Sum of electronic and thermal Enthalpies=            -280.426823
 Sum of electronic and thermal Free Energies=         -280.457408

                     E (Thermal)             CV                S
                      KCal/Mol        Cal/Mol-Kelvin    Cal/Mol-Kelvin
 Total                   17.116             11.724             64.372
 Electronic               0.000              0.000              0.000
 Translational            0.889              2.981             38.341
 Rotational               0.889              2.981             23.274
 Vibrational             15.339              5.762              2.758
 Vibration     1          0.767              1.468              0.960
 Vibration     2          0.814              1.348              0.778
 Vibration     3          0.976              0.997              0.423

                       ! Non-Optimized Parameters !

 1\1\GINC-N2110\Freq\RMP2-FC\Aug-CC-pVTZ\H1N1O3\CGAVINH\06-Mar-2022\1\\
 #p freq mp2/aug-cc-pvtz density=current\\title\\0,1\H\O,1,r1\O,2,r2,1,
 a1\N,3,r3,2,a2,1,d1,0\O,4,r4,3,a3,2,d2,0\\r1=1.00159319\r2=1.42673666\
 r3=1.38110764\r4=1.19478846\a1=100.6355057\a2=113.13777052\a3=114.3339
 2022\d1=0.\d2=0.\\Version=ES64L-G16RevB.01\State=1-A'\HF=-279.5052555\
 MP2=-280.4550439\RMSD=4.651e-09\RMSF=4.515e-03\ZeroPoint=0.0234991\The
 rmal=0.0272766\Dipole=-0.1093034,0.,-0.4227513\DipoleDeriv=0.3231643,0
 .,0.0354962,0.,0.295574,0.,-0.0325671,0.,0.2035633,-0.5296248,0.,0.281

 Normal termination of Gaussian 16 at Sun Mar  6 18:51:09 2022.
