 Gaussian 16, Revision B.01,
 Gaussian 16:  ES64L-G16RevB.01 20-Dec-2017

 ---------------------------------------
 #p freq mp2/aug-cc-pvtz density=current
 ---------------------------------------

 -----
 title
 -----
 Symbolic Z-matrix:
 Charge =  0 Multiplicity = 1

                         Standard orientation:
 ---------------------------------------------------------------------
 Center     Atomic      Atomic             Coordinates (Angstroms)
 Number     Number       Type             X           Y           Z
 ---------------------------------------------------------------------
      1          1           0        1.532498    1.694413   -0.000000
      2          8           0        1.442147    0.729659   -0.000000
      3          8           0       -0.000000    0.673129    0.000000
      4          7           0       -0.254639   -0.763258    0.000000
      5          8           0       -1.410901   -0.946739    0.000000
 ---------------------------------------------------------------------

 SCF Done:  E(RHF) =  -279.502571864     A.U. after   14 cycles
 E2 =    -0.9440984118D+00 EUMP2 =    -0.28044667027589D+03
 E2 =    -0.9440984118D+00 EUMP2 =    -0.28044667027589D+03

 The electronic state is 1-A'.
 Alpha  occ. eigenvalues --  -20.69022 -20.68409 -20.65898 -15.81259  -1.62441
 Alpha  occ. eigenvalues --   -1.50044  -1.25232  -0.94823  -0.77405  -0.76014
 Alpha  occ. eigenvalues --   -0.71289  -0.67942  -0.62157  -0.59098  -0.48310
 Alpha  occ. eigenvalues --   -0.47222
 Alpha virt. eigenvalues --    0.02965   0.07169   0.08622   0.10176   0.13395
 Alpha virt. eigenvalues --    0.13447   0.14414   0.15458   0.17823   0.19407
 Alpha virt. eigenvalues --    0.19976   0.20647   0.22193   0.23748   0.24075

 Mulliken charges:
               1
     1  H    0.249600
     2  O   -0.200244
     3  O   -0.146438
     4  N    0.290721
     5  O   -0.193640
 Sum of Mulliken charges =  -0.00000

 Dipole moment (field-independent basis, Debye):
    X=              0.5061    Y=              1.3714    Z=             -0.0000  Tot=              1.4618
 Quadrupole moment (field-independent basis, Debye-Ang):
   XX=            -22.5330   YY=            -18.5733   ZZ=            -21.9940
   XY=              3.2185   XZ=              0.0000   YZ=             -0.0000

  Exact polarizability:  33.714   9.451  30.299  -0.000  -0.000  17.889
 Approx polarizability:  28.672   5.113  23.547  -0.000  -0.000  15.503

 ******    1 imaginary frequencies (negative Signs) ******

                      1                      2                      3
                     A"                     A"                     A'
 Frequencies --   -265.0849               224.5800               339.0266
 Red. masses --      1.1369                10.7063                 8.5462
 Frc consts  --      0.0471                 0.3181                 0.5787
 IR Inten    --    125.1550                 0.6651                 6.5777

                      4                      5                      6
                     A'                     A'                     A'
 Frequencies --    455.1808               791.8437               992.2671
 Red. masses --     12.4082                12.8118                15.6504
 Frc consts  --      1.5147                 4.7330                 9.0789
 IR Inten    --    199.4536               173.9087                17.7777

                      7                      8                      9
                     A'                     A'                     A'
 Frequencies --   1384.3635              1677.9565              3777.5573
 Red. masses --      1.1344                13.0668                 1.0675
 Frc consts  --      1.2810                21.6762                 8.9748
 IR Inten    --    154.3277               139.6109                83.0791

 - Thermochemistry -
 -------------------
 Temperature   298.150 Kelvin.  Pressure   1.00000 Atm.
 Atom     1 has atomic number  1 and mass   1.00783

 Molecular mass:    62.99564 amu.
 Principal axes and moments of inertia in atomic units:
                           1         2         3
     Eigenvalues --    32.66921 358.18359 390.85280
           X            0.80586  -0.59211   0.00000
           Y            0.59211   0.80586   0.00000
           Z           -0.00000   0.00000   1.00000
 This molecule is an asymmetric top.
 Rotational symmetry number  1.
 Rotational temperatures (Kelvin)      2.65124     0.24181     0.22160
 Rotational constants (GHZ):          55.24288     5.03859     4.61744
    1 imaginary frequencies ignored.
 Zero-point vibrational energy      57676.6 (Joules/Mol)
                                   13.78504 (Kcal/Mol)
 Warning -- explicit consideration of   3 degrees of freedom as
           vibrations may cause significant error
 Vibrational temperatures:    323.12   487.78   654.90  1139.29  1427.65
          (Kelvin)           1991.79  2414.21  5435.06

 Zero-point correction=                           0.021968 (Hartree/Particle)
 Thermal correction to Energy=                    0.026086
 Thermal correction to Enthalpy=                  0.027030
 Thermal correction to Gibbs Free Energy=        -0.004156
 Sum of electronic and zero-point Energies=           -280.424702
 Sum of electronic and thermal Energies=              -280.420585
 Sum of electronic and thermal Enthalpies=            -280.419640
 Sum of electronic and thermal Free Energies=         -280.450826

                     E (Thermal)             CV                S
                      KCal/Mol        Cal/Mol-Kelvin    Cal/Mol-Kelvin
 Total                   16.369             11.914             65.635
 Electronic               0.000              0.000              0.000
 Translational            0.889              2.981             38.341
 Rotational               0.889              2.981             23.041
 Vibrational             14.592              5.952              4.254
 Vibration     1          0.649              1.804              1.922
 Vibration     2          0.719              1.598              1.217
 Vibration     3          0.814              1.349              0.780

                       ! Non-Optimized Parameters !

 1\1\GINC-N2109\Freq\RMP2-FC\Aug-CC-pVTZ\H1N1O3\CGAVINH\21-Feb-2022\1\\
 #p freq mp2/aug-cc-pvtz density=current\\title\\0,1\H\O,1,r1\O,2,r2,1,
 a1\N,3,r3,2,a2,1,d1,0\O,4,r4,3,a3,2,d2,0\\r1=0.96897556\r2=1.44325491\
 r3=1.45878406\r4=1.17072885\a1=97.59494903\a2=102.29752444\a3=109.0695
 5123\d1=180.\d2=180.\\Version=ES64L-G16RevB.01\State=1-A'\HF=-279.5025
 719\MP2=-280.4466703\RMSD=3.683e-09\RMSF=2.065e-03\ZeroPoint=0.0219679
 \Thermal=0.0260857\Dipole=-0.1479221,0.,-0.5557587\DipoleDeriv=0.26676
 47,0.,0.0489634,0.,0.3560576,0.,0.08033,0.,0.2770419,-0.3289912,0.,-0.

 Normal termination of Gaussian 16 at Mon Feb 21 20:14:59 2022.
