 Gaussian 16, Revision B.01,
 Gaussian 16:  ES64L-G16RevB.01 20-Dec-2017

 ---------------------------------------
 #p freq mp2/aug-cc-pvtz density=current
 ---------------------------------------

 -----
 title
 -----
 Symbolic Z-matrix:
 Charge =  0 Multiplicity = 1

                         Standard orientation:
 ---------------------------------------------------------------------
 Center     Atomic      Atomic             Coordinates (Angstroms)
 Number     Number       Type             X           Y           Z
 ---------------------------------------------------------------------
      1          1           0        1.551197    1.683813    0.000000
      2          8           0        1.454163    0.719708    0.000000
      3          8           0        0.000000    0.672798    0.000000
      4          7           0       -0.264586   -0.761791   -0.000000
      5          8           0       -1.416549   -0.936415   -0.000000
 ---------------------------------------------------------------------

 SCF Done:  E(RHF) =  -279.502592918     A.U. after   14 cycles
 E2 =    -0.9440915489D+00 EUMP2 =    -0.28044668446655D+03
 E2 =    -0.9440915489D+00 EUMP2 =    -0.28044668446655D+03

 The electronic state is 1-A'.
 Alpha  occ. eigenvalues --  -20.68956 -20.68453 -20.65926 -15.81202  -1.62863
 Alpha  occ. eigenvalues --   -1.49580  -1.25384  -0.94731  -0.77346  -0.76067
 Alpha  occ. eigenvalues --   -0.71298  -0.68003  -0.62157  -0.58906  -0.48475
 Alpha  occ. eigenvalues --   -0.47140
 Alpha virt. eigenvalues --    0.02978   0.07340   0.08585   0.10172   0.13385
 Alpha virt. eigenvalues --    0.13403   0.14420   0.15467   0.17836   0.19411
 Alpha virt. eigenvalues --    0.20002   0.20637   0.22100   0.23590   0.23742

 Mulliken charges:
               1
     1  H    0.250070
     2  O   -0.202044
     3  O   -0.148407
     4  N    0.292321
     5  O   -0.191940
 Sum of Mulliken charges =  -0.00000

 Dipole moment (field-independent basis, Debye):
    X=              0.4869    Y=              1.3359    Z=              0.0000  Tot=              1.4219
 Quadrupole moment (field-independent basis, Debye-Ang):
   XX=            -22.4393   YY=            -18.6158   ZZ=            -22.0010
   XY=              3.2751   XZ=             -0.0000   YZ=             -0.0000

  Exact polarizability:  33.943   9.411  30.178   0.000   0.000  17.917
 Approx polarizability:  28.885   5.061  23.473   0.000   0.000  15.498

 ******    1 imaginary frequencies (negative Signs) ******

                      1                      2                      3
                     A"                     A"                     A'
 Frequencies --   -268.4379               208.7809               336.6889
 Red. masses --      1.1455                 9.9913                 8.6818
 Frc consts  --      0.0486                 0.2566                 0.5799
 IR Inten    --    124.3443                 1.1492                 3.4037

                      4                      5                      6
                     A'                     A'                     A'
 Frequencies --    454.8189               785.0506               967.8776
 Red. masses --     12.2388                12.7931                15.3984
 Frc consts  --      1.4916                 4.6454                 8.4990
 IR Inten    --    200.4323               171.0002                21.8970

                      7                      8                      9
                     A'                     A'                     A'
 Frequencies --   1371.6856              1713.6435              3778.6495
 Red. masses --      1.1311                13.6069                 1.0675
 Frc consts  --      1.2539                23.5423                 8.9807
 IR Inten    --    150.2409               154.0082                82.1134

 - Thermochemistry -
 -------------------
 Temperature   298.150 Kelvin.  Pressure   1.00000 Atm.
 Atom     1 has atomic number  1 and mass   1.00783

 Molecular mass:    62.99564 amu.
 Principal axes and moments of inertia in atomic units:
                           1         2         3
     Eigenvalues --    32.81776 359.19912 392.01688
           X            0.81088  -0.58521   0.00000
           Y            0.58521   0.81088   0.00000
           Z            0.00000  -0.00000   1.00000
 This molecule is an asymmetric top.
 Rotational symmetry number  1.
 Rotational temperatures (Kelvin)      2.63924     0.24113     0.22094
 Rotational constants (GHZ):          54.99282     5.02435     4.60373
    1 imaginary frequencies ignored.
 Zero-point vibrational energy      57523.6 (Joules/Mol)
                                   13.74847 (Kcal/Mol)
 Warning -- explicit consideration of   3 degrees of freedom as
           vibrations may cause significant error
 Vibrational temperatures:    300.39   484.42   654.38  1129.51  1392.56
          (Kelvin)           1973.55  2465.55  5436.63

 Zero-point correction=                           0.021910 (Hartree/Particle)
 Thermal correction to Energy=                    0.026060
 Thermal correction to Enthalpy=                  0.027004
 Thermal correction to Gibbs Free Energy=        -0.004262
 Sum of electronic and zero-point Energies=           -280.424775
 Sum of electronic and thermal Energies=              -280.420624
 Sum of electronic and thermal Enthalpies=            -280.419680
 Sum of electronic and thermal Free Energies=         -280.450947

                     E (Thermal)             CV                S
                      KCal/Mol        Cal/Mol-Kelvin    Cal/Mol-Kelvin
 Total                   16.353             11.982             65.806
 Electronic               0.000              0.000              0.000
 Translational            0.889              2.981             38.341
 Rotational               0.889              2.981             23.051
 Vibrational             14.576              6.021              4.415
 Vibration     1          0.642              1.827              2.054
 Vibration     2          0.717              1.602              1.228
 Vibration     3          0.813              1.350              0.781

                       ! Non-Optimized Parameters !

 1\1\GINC-N2228\Freq\RMP2-FC\Aug-CC-pVTZ\H1N1O3\CGAVINH\21-Feb-2022\1\\
 #p freq mp2/aug-cc-pvtz density=current\\title\\0,1\H\O,1,r1\O,2,r2,1,
 a1\N,3,r3,2,a2,1,d1,0\O,4,r4,3,a3,2,d2,0\\r1=0.96897556\r2=1.45491931\
 r3=1.45878406\r4=1.16512321\a1=97.59494903\a2=102.29752444\a3=109.0695
 5123\d1=180.\d2=180.\\Version=ES64L-G16RevB.01\State=1-A'\HF=-279.5025
 929\MP2=-280.4466845\RMSD=3.641e-09\RMSF=3.238e-03\ZeroPoint=0.0219096
 \Thermal=0.0260601\Dipole=-0.1379722,0.,-0.5421332\DipoleDeriv=0.26635
 02,0.,0.048201,0.,0.3553667,0.,0.081772,0.,0.2749225,-0.3270329,0.,-0.

 Normal termination of Gaussian 16 at Mon Feb 21 20:29:47 2022.
