 Gaussian 16, Revision B.01,
 Gaussian 16:  ES64L-G16RevB.01 20-Dec-2017

 ---------------------------------------
 #p freq mp2/aug-cc-pvtz density=current
 ---------------------------------------

 -----
 title
 -----
 Symbolic Z-matrix:
 Charge =  0 Multiplicity = 1

                         Standard orientation:
 ---------------------------------------------------------------------
 Center     Atomic      Atomic             Coordinates (Angstroms)
 Number     Number       Type             X           Y           Z
 ---------------------------------------------------------------------
      1          1           0        1.112653   -0.602154    0.000000
      2          8           0        1.321202    0.360900    0.000000
      3          8           0       -0.000000    0.917754    0.000000
      4          7           0       -0.993351   -0.041784    0.000000
      5          8           0       -0.591102   -1.166824    0.000000
 ---------------------------------------------------------------------

 SCF Done:  E(RHF) =  -279.505980280     A.U. after   14 cycles
 E2 =    -0.9492391767D+00 EUMP2 =    -0.28045521945714D+03
 E2 =    -0.9492391767D+00 EUMP2 =    -0.28045521945714D+03

 The electronic state is 1-A'.
 Alpha  occ. eigenvalues --  -20.71976 -20.68715 -20.66895 -15.82612  -1.64319
 Alpha  occ. eigenvalues --   -1.50278  -1.29467  -0.95997  -0.83344  -0.75843
 Alpha  occ. eigenvalues --   -0.73900  -0.63837  -0.61767  -0.61710  -0.50445
 Alpha  occ. eigenvalues --   -0.49869
 Alpha virt. eigenvalues --    0.03499   0.06029   0.09510   0.10029   0.11977
 Alpha virt. eigenvalues --    0.12245   0.14899   0.15147   0.17755   0.18044
 Alpha virt. eigenvalues --    0.18982   0.21097   0.21664   0.23923   0.24634

 Mulliken charges:
               1
     1  H    0.279074
     2  O   -0.275007
     3  O    0.035922
     4  N    0.155356
     5  O   -0.195344
 Sum of Mulliken charges =  -0.00000

 Dipole moment (field-independent basis, Debye):
    X=              0.0397    Y=             -1.1031    Z=              0.0000  Tot=              1.1038
 Quadrupole moment (field-independent basis, Debye-Ang):
   XX=            -23.3789   YY=            -22.9303   ZZ=            -21.9427
   XY=             -1.9898   XZ=              0.0000   YZ=              0.0000

  Exact polarizability:  31.043   4.104  29.853   0.000   0.000  17.639
 Approx polarizability:  24.708   0.466  27.688  -0.000  -0.000  15.525

                      1                      2                      3
                     A"                     A'                     A"
 Frequencies --    353.4826               396.0510               522.8403
 Red. masses --      1.5512                 7.0708                 2.9304
 Frc consts  --      0.1142                 0.6535                 0.4720
 IR Inten    --     63.1279                 7.6805                25.3919

                      4                      5                      6
                     A'                     A'                     A'
 Frequencies --    709.3751               824.0620               963.0415
 Red. masses --     13.3146                12.7565                 9.4859
 Frc consts  --      3.9476                 5.1039                 5.1835
 IR Inten    --    214.6259                31.5460                13.1259

                      7                      8                      9
                     A'                     A'                     A'
 Frequencies --   1427.3900              1568.7903              3490.5040
 Red. masses --      1.2892                 6.8547                 1.0639
 Frc consts  --      1.5476                 9.9395                 7.6369
 IR Inten    --     80.2896               149.5490                42.3555

 - Thermochemistry -
 -------------------
 Temperature   298.150 Kelvin.  Pressure   1.00000 Atm.
 Atom     1 has atomic number  1 and mass   1.00783

 Molecular mass:    62.99564 amu.
 Principal axes and moments of inertia in atomic units:
                           1         2         3
     Eigenvalues --    84.94127 223.13760 308.07887
           X            0.80002  -0.59997   0.00000
           Y            0.59997   0.80002   0.00000
           Z            0.00000   0.00000   1.00000
 This molecule is an asymmetric top.
 Rotational symmetry number  1.
 Rotational temperatures (Kelvin)      1.01969     0.38816     0.28114
 Rotational constants (GHZ):          21.24693     8.08802     5.85805
 Zero-point vibrational energy      61341.7 (Joules/Mol)
                                   14.66103 (Kcal/Mol)
 Warning -- explicit consideration of   3 degrees of freedom as
           vibrations may cause significant error
 Vibrational temperatures:    508.58   569.83   752.25  1020.63  1185.64
          (Kelvin)           1385.60  2053.70  2257.14  5022.06

 Zero-point correction=                           0.023364 (Hartree/Particle)
 Thermal correction to Energy=                    0.027308
 Thermal correction to Enthalpy=                  0.028252
 Thermal correction to Gibbs Free Energy=        -0.002618
 Sum of electronic and zero-point Energies=           -280.431856
 Sum of electronic and thermal Energies=              -280.427911
 Sum of electronic and thermal Enthalpies=            -280.426967
 Sum of electronic and thermal Free Energies=         -280.457837

                     E (Thermal)             CV                S
                      KCal/Mol        Cal/Mol-Kelvin    Cal/Mol-Kelvin
 Total                   17.136             12.206             64.972
 Electronic               0.000              0.000              0.000
 Translational            0.889              2.981             38.341
 Rotational               0.889              2.981             23.283
 Vibrational             15.359              6.244              3.348
 Vibration     1          0.730              1.568              1.151
 Vibration     2          0.763              1.479              0.977
 Vibration     3          0.878              1.199              0.603

                       ! Non-Optimized Parameters !

 1\1\GINC-N2398\Freq\RMP2-FC\Aug-CC-pVTZ\H1N1O3\CGAVINH\06-Mar-2022\1\\
 #p freq mp2/aug-cc-pvtz density=current\\title\\0,1\H\O,1,r1\O,2,r2,1,
 a1\N,3,r3,2,a2,1,d1,0\O,4,r4,3,a3,2,d2,0\\r1=0.98537664\r2=1.4337573\r
 3=1.38110764\r4=1.19478846\a1=100.6355057\a2=113.13777052\a3=114.33392
 022\d1=0.\d2=0.\\Version=ES64L-G16RevB.01\State=1-A'\HF=-279.5059803\M
 P2=-280.4552195\RMSD=4.553e-09\RMSF=1.059e-03\ZeroPoint=0.0233638\Ther
 mal=0.0273083\Dipole=-0.1071004,0.,-0.4208637\DipoleDeriv=0.3168333,0.
 ,0.0376133,0.,0.2983962,0.,-0.022203,0.,0.1990537,-0.5292503,0.,0.2745

 Normal termination of Gaussian 16 at Sun Mar  6 18:56:48 2022.
