 Gaussian 16, Revision B.01,
 Gaussian 16:  ES64L-G16RevB.01 20-Dec-2017

 ---------------------------------------
 #p freq mp2/aug-cc-pvtz density=current
 ---------------------------------------

 -----
 title
 -----
 Symbolic Z-matrix:
 Charge =  0 Multiplicity = 1

                         Standard orientation:
 ---------------------------------------------------------------------
 Center     Atomic      Atomic             Coordinates (Angstroms)
 Number     Number       Type             X           Y           Z
 ---------------------------------------------------------------------
      1          1           0        1.112419   -0.582763   -0.000000
      2          8           0        1.315765    0.364824   -0.000000
      3          8           0        0.000000    0.916493    0.000000
      4          7           0       -0.991557   -0.044899    0.000000
      5          8           0       -0.587206   -1.169185    0.000000
 ---------------------------------------------------------------------

 SCF Done:  E(RHF) =  -279.507184611     A.U. after   14 cycles
 E2 =    -0.9478414843D+00 EUMP2 =    -0.28045502609567D+03
 E2 =    -0.9478414843D+00 EUMP2 =    -0.28045502609567D+03

 The electronic state is 1-A'.
 Alpha  occ. eigenvalues --  -20.72005 -20.68709 -20.66771 -15.82603  -1.64459
 Alpha  occ. eigenvalues --   -1.50658  -1.29679  -0.96137  -0.83545  -0.75913
 Alpha  occ. eigenvalues --   -0.74024  -0.64101  -0.61923  -0.61874  -0.50454
 Alpha  occ. eigenvalues --   -0.49820
 Alpha virt. eigenvalues --    0.03519   0.06032   0.09502   0.10042   0.11959
 Alpha virt. eigenvalues --    0.12256   0.14960   0.15216   0.17725   0.18026
 Alpha virt. eigenvalues --    0.18974   0.21121   0.21687   0.24200   0.24631

 Mulliken charges:
               1
     1  H    0.267751
     2  O   -0.262767
     3  O    0.037869
     4  N    0.153142
     5  O   -0.195995
 Sum of Mulliken charges =  -0.00000

 Dipole moment (field-independent basis, Debye):
    X=              0.0564    Y=             -1.0793    Z=             -0.0000  Tot=              1.0807
 Quadrupole moment (field-independent basis, Debye-Ang):
   XX=            -23.3553   YY=            -22.9647   ZZ=            -21.9130
   XY=             -1.9594   XZ=              0.0000   YZ=             -0.0000

  Exact polarizability:  30.822   4.143  29.745  -0.000   0.000  17.581
 Approx polarizability:  24.478   0.492  27.522  -0.000   0.000  15.490

 ******    1 imaginary frequencies (negative Signs) ******

                      1                      2                      3
                     A"                     A'                     A"
 Frequencies --   -258.3787               391.8765               497.6039
 Red. masses --      1.1744                 6.8363                 7.3979
 Frc consts  --      0.0462                 0.6185                 1.0793
 IR Inten    --     84.4683                 8.0845                 5.4240

                      4                      5                      6
                     A'                     A'                     A'
 Frequencies --    709.5479               837.7514               963.8782
 Red. masses --     12.8753                12.6346                 8.6040
 Frc consts  --      3.8192                 5.2245                 4.7097
 IR Inten    --    219.1612                30.7568                15.7807

                      7                      8                      9
                     A'                     A'                     A'
 Frequencies --   1402.0561              1566.3168              3697.8084
 Red. masses --      1.2783                 8.2740                 1.0643
 Frc consts  --      1.4805                11.9598                 8.5743
 IR Inten    --     75.3552               147.5889                40.8211

 - Thermochemistry -
 -------------------
 Temperature   298.150 Kelvin.  Pressure   1.00000 Atm.
 Atom     1 has atomic number  1 and mass   1.00783

 Molecular mass:    62.99564 amu.
 Principal axes and moments of inertia in atomic units:
                           1         2         3
     Eigenvalues --    84.43967 222.65592 307.09559
           X            0.79652  -0.60461   0.00000
           Y            0.60461   0.79652   0.00000
           Z           -0.00000   0.00000   1.00000
 This molecule is an asymmetric top.
 Rotational symmetry number  1.
 Rotational temperatures (Kelvin)      1.02575     0.38900     0.28204
 Rotational constants (GHZ):          21.37314     8.10552     5.87681
    1 imaginary frequencies ignored.
 Zero-point vibrational energy      60213.1 (Joules/Mol)
                                   14.39127 (Kcal/Mol)
 Warning -- explicit consideration of   2 degrees of freedom as
           vibrations may cause significant error
 Vibrational temperatures:    563.82   715.94  1020.88  1205.34  1386.81
          (Kelvin)           2017.25  2253.58  5320.32

 Zero-point correction=                           0.022934 (Hartree/Particle)
 Thermal correction to Energy=                    0.026540
 Thermal correction to Enthalpy=                  0.027484
 Thermal correction to Gibbs Free Energy=        -0.002866
 Sum of electronic and zero-point Energies=           -280.432092
 Sum of electronic and thermal Energies=              -280.428486
 Sum of electronic and thermal Enthalpies=            -280.427542
 Sum of electronic and thermal Free Energies=         -280.457892

                     E (Thermal)             CV                S
                      KCal/Mol        Cal/Mol-Kelvin    Cal/Mol-Kelvin
 Total                   16.654             10.689             63.878
 Electronic               0.000              0.000              0.000
 Translational            0.889              2.981             38.341
 Rotational               0.889              2.981             23.272
 Vibrational             14.877              4.727              2.266
 Vibration     1          0.759              1.488              0.993
 Vibration     2          0.853              1.255              0.664

                       ! Non-Optimized Parameters !

 1\1\GINC-N2110\Freq\RMP2-FC\Aug-CC-pVTZ\H1N1O3\CGAVINH\06-Mar-2022\1\\
 #p freq mp2/aug-cc-pvtz density=current\\title\\0,1\H\O,1,r1\O,2,r2,1,
 a1\N,3,r3,2,a2,1,d1,0\O,4,r4,3,a3,2,d2,0\\r1=0.96916009\r2=1.42673666\
 r3=1.38110764\r4=1.19478846\a1=100.6355057\a2=113.13777052\a3=114.3339
 2022\d1=0.\d2=0.\\Version=ES64L-G16RevB.01\State=1-A'\HF=-279.5071846\
 MP2=-280.4550261\RMSD=4.195e-09\RMSF=5.127e-03\ZeroPoint=0.0229339\The
 rmal=0.0265402\Dipole=-0.1108029,0.,-0.4105005\DipoleDeriv=0.3106889,0
 .,0.0401477,0.,0.3006088,0.,-0.0164186,0.,0.1961458,-0.5269107,0.,0.28

 Normal termination of Gaussian 16 at Sun Mar  6 18:55:33 2022.
