 Gaussian 16, Revision B.01,
 Gaussian 16:  ES64L-G16RevB.01 20-Dec-2017

 ---------------------------------------
 #p freq mp2/aug-cc-pvtz density=current
 ---------------------------------------

 -----
 title
 -----
 Symbolic Z-matrix:
 Charge =  0 Multiplicity = 1

                         Standard orientation:
 ---------------------------------------------------------------------
 Center     Atomic      Atomic             Coordinates (Angstroms)
 Number     Number       Type             X           Y           Z
 ---------------------------------------------------------------------
      1          1           0        1.108176   -0.597025    0.000000
      2          8           0        1.315459    0.366303    0.000000
      3          8           0        0.000000    0.918702    0.000000
      4          7           0       -0.992090   -0.042139   -0.000000
      5          8           0       -0.585902   -1.173505   -0.000000
 ---------------------------------------------------------------------

 SCF Done:  E(RHF) =  -279.505112859     A.U. after   14 cycles
 E2 =    -0.9500643127D+00 EUMP2 =    -0.28045517717140D+03
 E2 =    -0.9500643127D+00 EUMP2 =    -0.28045517717140D+03

 The electronic state is 1-A'.
 Alpha  occ. eigenvalues --  -20.72146 -20.68689 -20.66893 -15.82720  -1.64036
 Alpha  occ. eigenvalues --   -1.50336  -1.29449  -0.96145  -0.83319  -0.75740
 Alpha  occ. eigenvalues --   -0.73891  -0.63731  -0.61861  -0.61669  -0.50601
 Alpha  occ. eigenvalues --   -0.49798
 Alpha virt. eigenvalues --    0.03511   0.05800   0.09507   0.10033   0.11988
 Alpha virt. eigenvalues --    0.12253   0.14932   0.15203   0.17731   0.18039
 Alpha virt. eigenvalues --    0.18977   0.21101   0.21667   0.24184   0.24622

 Mulliken charges:
               1
     1  H    0.278515
     2  O   -0.273682
     3  O    0.039496
     4  N    0.154235
     5  O   -0.198564
 Sum of Mulliken charges =  -0.00000

 Dipole moment (field-independent basis, Debye):
    X=              0.0688    Y=             -1.0620    Z=             -0.0000  Tot=              1.0642
 Quadrupole moment (field-independent basis, Debye-Ang):
   XX=            -23.3921   YY=            -22.9513   ZZ=            -21.9479
   XY=             -1.9904   XZ=             -0.0000   YZ=             -0.0000

  Exact polarizability:  30.979   4.189  30.014   0.000   0.000  17.640
 Approx polarizability:  24.608   0.505  27.852   0.000   0.000  15.548

                      1                      2                      3
                     A"                     A'                     A"
 Frequencies --    357.5745               397.9104               530.1599
 Red. masses --      1.5265                 7.0334                 3.0193
 Frc consts  --      0.1150                 0.6561                 0.5000
 IR Inten    --     64.2106                 8.0645                24.1486

                      4                      5                      6
                     A'                     A'                     A'
 Frequencies --    714.3850               836.8722               969.2223
 Red. masses --     13.1846                12.4392                 9.8397
 Frc consts  --      3.9644                 5.1329                 5.4460
 IR Inten    --    213.7859                33.8294                13.3299

                      7                      8                      9
                     A'                     A'                     A'
 Frequencies --   1428.3729              1534.4177              3486.6235
 Red. masses --      1.4238                 4.5539                 1.0638
 Frc consts  --      1.7116                 6.3172                 7.6192
 IR Inten    --     78.7358               143.6224                42.9085

 - Thermochemistry -
 -------------------
 Temperature   298.150 Kelvin.  Pressure   1.00000 Atm.
 Atom     1 has atomic number  1 and mass   1.00783

 Molecular mass:    62.99564 amu.
 Principal axes and moments of inertia in atomic units:
                           1         2         3
     Eigenvalues --    84.99925 222.90143 307.90068
           X            0.79436  -0.60745   0.00000
           Y            0.60745   0.79436   0.00000
           Z           -0.00000   0.00000   1.00000
 This molecule is an asymmetric top.
 Rotational symmetry number  1.
 Rotational temperatures (Kelvin)      1.01900     0.38857     0.28130
 Rotational constants (GHZ):          21.23244     8.09659     5.86144
 Zero-point vibrational energy      61341.7 (Joules/Mol)
                                   14.66103 (Kcal/Mol)
 Warning -- explicit consideration of   3 degrees of freedom as
           vibrations may cause significant error
 Vibrational temperatures:    514.47   572.50   762.78  1027.84  1204.07
          (Kelvin)           1394.49  2055.11  2207.68  5016.47

 Zero-point correction=                           0.023364 (Hartree/Particle)
 Thermal correction to Energy=                    0.027291
 Thermal correction to Enthalpy=                  0.028235
 Thermal correction to Gibbs Free Energy=        -0.002607
 Sum of electronic and zero-point Energies=           -280.431813
 Sum of electronic and thermal Energies=              -280.427886
 Sum of electronic and thermal Enthalpies=            -280.426942
 Sum of electronic and thermal Free Energies=         -280.457784

                     E (Thermal)             CV                S
                      KCal/Mol        Cal/Mol-Kelvin    Cal/Mol-Kelvin
 Total                   17.126             12.148             64.914
 Electronic               0.000              0.000              0.000
 Translational            0.889              2.981             38.341
 Rotational               0.889              2.981             23.282
 Vibrational             15.348              6.186              3.291
 Vibration     1          0.733              1.560              1.133
 Vibration     2          0.764              1.475              0.970
 Vibration     3          0.885              1.183              0.587

                       ! Non-Optimized Parameters !

 1\1\GINC-N2199\Freq\RMP2-FC\Aug-CC-pVTZ\H1N1O3\CGAVINH\06-Mar-2022\1\\
 #p freq mp2/aug-cc-pvtz density=current\\title\\0,1\H\O,1,r1\O,2,r2,1,
 a1\N,3,r3,2,a2,1,d1,0\O,4,r4,3,a3,2,d2,0\\r1=0.98537664\r2=1.42673666\
 r3=1.38110764\r4=1.2020719\a1=100.6355057\a2=113.13777052\a3=114.33392
 022\d1=0.\d2=0.\\Version=ES64L-G16RevB.01\State=1-A'\HF=-279.5051129\M
 P2=-280.4551772\RMSD=4.927e-09\RMSF=3.232e-03\ZeroPoint=0.0233638\Ther
 mal=0.0272913\Dipole=-0.1143538,0.,-0.4027836\DipoleDeriv=0.3170914,0.
 ,0.0381046,0.,0.2980295,0.,-0.0241036,0.,0.2005122,-0.528836,0.,0.2839

 Normal termination of Gaussian 16 at Sun Mar  6 19:16:46 2022.
