 Gaussian 16, Revision B.01,
 Gaussian 16:  ES64L-G16RevB.01 20-Dec-2017

 ---------------------------------------
 #p freq mp2/aug-cc-pvtz density=current
 ---------------------------------------

 -----
 title
 -----
 Symbolic Z-matrix:
 Charge =  0 Multiplicity = 1

                         Standard orientation:
 ---------------------------------------------------------------------
 Center     Atomic      Atomic             Coordinates (Angstroms)
 Number     Number       Type             X           Y           Z
 ---------------------------------------------------------------------
      1          1           0        1.105343   -0.601650    0.000000
      2          8           0        1.314425    0.361289    0.000000
      3          8           0        0.000000    0.916144    0.000000
      4          7           0       -0.993883   -0.042843    0.000000
      5          8           0       -0.582946   -1.164739    0.000000
 ---------------------------------------------------------------------

 SCF Done:  E(RHF) =  -279.506383160     A.U. after   14 cycles
 E2 =    -0.9488352638D+00 EUMP2 =    -0.28045521842410D+03
 E2 =    -0.9488352638D+00 EUMP2 =    -0.28045521842410D+03

 The electronic state is 1-A'.
 Alpha  occ. eigenvalues --  -20.71932 -20.68702 -20.66797 -15.82633  -1.64490
 Alpha  occ. eigenvalues --   -1.50449  -1.29357  -0.96020  -0.83534  -0.75902
 Alpha  occ. eigenvalues --   -0.74006  -0.63669  -0.61831  -0.61806  -0.50552
 Alpha  occ. eigenvalues --   -0.49725
 Alpha virt. eigenvalues --    0.03511   0.05998   0.09512   0.10031   0.11971
 Alpha virt. eigenvalues --    0.12257   0.14947   0.15213   0.17746   0.18033
 Alpha virt. eigenvalues --    0.18987   0.21097   0.21669   0.24250   0.24635

 Mulliken charges:
               1
     1  H    0.277653
     2  O   -0.274221
     3  O    0.037970
     4  N    0.153904
     5  O   -0.195306
 Sum of Mulliken charges =  -0.00000

 Dipole moment (field-independent basis, Debye):
    X=              0.0404    Y=             -1.0934    Z=              0.0000  Tot=              1.0941
 Quadrupole moment (field-independent basis, Debye-Ang):
   XX=            -23.3684   YY=            -22.9385   ZZ=            -21.9316
   XY=             -1.9785   XZ=              0.0000   YZ=              0.0000

  Exact polarizability:  30.907   4.105  29.795   0.000   0.000  17.609
 Approx polarizability:  24.585   0.469  27.598  -0.000  -0.000  15.510

                      1                      2                      3
                     A"                     A'                     A"
 Frequencies --    354.5923               404.1103               526.3243
 Red. masses --      1.5519                 7.0324                 2.9255
 Frc consts  --      0.1150                 0.6766                 0.4775
 IR Inten    --     62.8582                 7.8410                25.3676

                      4                      5                      6
                     A'                     A'                     A'
 Frequencies --    714.7447               835.8868               972.3440
 Red. masses --     13.4107                12.3700                 9.6735
 Frc consts  --      4.0365                 5.0923                 5.3886
 IR Inten    --    217.9217                29.1888                12.3984

                      7                      8                      9
                     A'                     A'                     A'
 Frequencies --   1431.3537              1570.9723              3486.5077
 Red. masses --      1.3069                 6.4277                 1.0636
 Frc consts  --      1.5776                 9.3463                 7.6176
 IR Inten    --     80.4229               149.3240                43.5443

 - Thermochemistry -
 -------------------
 Temperature   298.150 Kelvin.  Pressure   1.00000 Atm.
 Atom     1 has atomic number  1 and mass   1.00783

 Molecular mass:    62.99564 amu.
 Principal axes and moments of inertia in atomic units:
                           1         2         3
     Eigenvalues --    84.72673 221.35239 306.07912
           X            0.79841  -0.60212   0.00000
           Y            0.60212   0.79841   0.00000
           Z            0.00000   0.00000   1.00000
 This molecule is an asymmetric top.
 Rotational symmetry number  1.
 Rotational temperatures (Kelvin)      1.02227     0.39129     0.28298
 Rotational constants (GHZ):          21.30073     8.15325     5.89632
 Zero-point vibrational energy      61588.8 (Joules/Mol)
                                   14.72007 (Kcal/Mol)
 Warning -- explicit consideration of   3 degrees of freedom as
           vibrations may cause significant error
 Vibrational temperatures:    510.18   581.42   757.26  1028.36  1202.65
          (Kelvin)           1398.99  2059.40  2260.28  5016.31

 Zero-point correction=                           0.023458 (Hartree/Particle)
 Thermal correction to Energy=                    0.027384
 Thermal correction to Enthalpy=                  0.028328
 Thermal correction to Gibbs Free Energy=        -0.002505
 Sum of electronic and zero-point Energies=           -280.431761
 Sum of electronic and thermal Energies=              -280.427834
 Sum of electronic and thermal Enthalpies=            -280.426890
 Sum of electronic and thermal Free Energies=         -280.457723

                     E (Thermal)             CV                S
                      KCal/Mol        Cal/Mol-Kelvin    Cal/Mol-Kelvin
 Total                   17.184             12.137             64.894
 Electronic               0.000              0.000              0.000
 Translational            0.889              2.981             38.341
 Rotational               0.889              2.981             23.266
 Vibrational             15.406              6.175              3.287
 Vibration     1          0.730              1.566              1.146
 Vibration     2          0.769              1.461              0.948
 Vibration     3          0.881              1.192              0.595

                       ! Non-Optimized Parameters !

 1\1\GINC-N2398\Freq\RMP2-FC\Aug-CC-pVTZ\H1N1O3\CGAVINH\06-Mar-2022\1\\
 #p freq mp2/aug-cc-pvtz density=current\\title\\0,1\H\O,1,r1\O,2,r2,1,
 a1\N,3,r3,2,a2,1,d1,0\O,4,r4,3,a3,2,d2,0\\r1=0.98537664\r2=1.42673666\
 r3=1.38110764\r4=1.19478846\a1=100.6355057\a2=113.13777052\a3=113.8590
 9236\d1=0.\d2=0.\\Version=ES64L-G16RevB.01\State=1-A'\HF=-279.5063832\
 MP2=-280.4552184\RMSD=4.470e-09\RMSF=1.025e-03\ZeroPoint=0.0234579\The
 rmal=0.0273841\Dipole=-0.1067964,0.,-0.4170071\DipoleDeriv=0.3180657,0
 .,0.0372081,0.,0.2978835,0.,-0.0257499,0.,0.2017502,-0.5273566,0.,0.28

 Normal termination of Gaussian 16 at Sun Mar  6 19:45:20 2022.
