 Gaussian 16, Revision B.01,
 Gaussian 16:  ES64L-G16RevB.01 20-Dec-2017

 ---------------------------------------
 #p freq mp2/aug-cc-pvtz density=current
 ---------------------------------------

 -----
 title
 -----
 Symbolic Z-matrix:
 Charge =  0 Multiplicity = 1

                         Standard orientation:
 ---------------------------------------------------------------------
 Center     Atomic      Atomic             Coordinates (Angstroms)
 Number     Number       Type             X           Y           Z
 ---------------------------------------------------------------------
      1          1           0        1.545922    1.703860   -0.000000
      2          8           0        1.453899    0.739264   -0.000000
      3          8           0       -0.000000    0.684798   -0.000000
      4          7           0       -0.261633   -0.776303    0.000000
      5          8           0       -1.418211   -0.957779    0.000000
 ---------------------------------------------------------------------

 SCF Done:  E(RHF) =  -279.499063732     A.U. after   14 cycles
 E2 =    -0.9475384945D+00 EUMP2 =    -0.28044660222639D+03
 E2 =    -0.9475384945D+00 EUMP2 =    -0.28044660222639D+03

 The electronic state is 1-A'.
 Alpha  occ. eigenvalues --  -20.69033 -20.68656 -20.65685 -15.81696  -1.62320
 Alpha  occ. eigenvalues --   -1.49199  -1.24679  -0.95014  -0.77079  -0.75636
 Alpha  occ. eigenvalues --   -0.70772  -0.68066  -0.62167  -0.58803  -0.48249
 Alpha  occ. eigenvalues --   -0.47123
 Alpha virt. eigenvalues --    0.03033   0.06839   0.08545   0.10141   0.13381
 Alpha virt. eigenvalues --    0.13412   0.14461   0.15504   0.17882   0.19403
 Alpha virt. eigenvalues --    0.19968   0.20254   0.22147   0.23651   0.23709

 Mulliken charges:
               1
     1  H    0.250006
     2  O   -0.203342
     3  O   -0.163620
     4  N    0.299067
     5  O   -0.182110
 Sum of Mulliken charges =  -0.00000

 Dipole moment (field-independent basis, Debye):
    X=              0.3931    Y=              1.2120    Z=             -0.0000  Tot=              1.2742
 Quadrupole moment (field-independent basis, Debye-Ang):
   XX=            -22.4255   YY=            -18.5062   ZZ=            -22.0468
   XY=              3.3041   XZ=              0.0000   YZ=              0.0000

  Exact polarizability:  33.989   9.616  30.787  -0.000  -0.000  18.016
 Approx polarizability:  29.132   5.283  24.115  -0.000  -0.000  15.561

 ******    1 imaginary frequencies (negative Signs) ******

                      1                      2                      3
                     A"                     A"                     A'
 Frequencies --   -276.1506               239.3295               332.4060
 Red. masses --      1.1334                10.8444                 8.5190
 Frc consts  --      0.0509                 0.3660                 0.5546
 IR Inten    --    125.3198                 0.6708                10.7677

                      4                      5                      6
                     A'                     A'                     A'
 Frequencies --    403.6649               770.7972               963.1770
 Red. masses --     12.5030                13.1433                15.5162
 Frc consts  --      1.2003                 4.6008                 8.4810
 IR Inten    --    213.6872               153.1818                20.1393

                      7                      8                      9
                     A'                     A'                     A'
 Frequencies --   1366.5013              1666.2200              3778.1126
 Red. masses --      1.1301                13.3190                 1.0676
 Frc consts  --      1.2433                21.7865                 8.9782
 IR Inten    --    148.4567               153.3028                82.9131

 - Thermochemistry -
 -------------------
 Temperature   298.150 Kelvin.  Pressure   1.00000 Atm.
 Atom     1 has atomic number  1 and mass   1.00783

 Molecular mass:    62.99564 amu.
 Principal axes and moments of inertia in atomic units:
                           1         2         3
     Eigenvalues --    33.48893 364.84612 398.33504
           X            0.80368  -0.59506   0.00000
           Y            0.59506   0.80368   0.00000
           Z           -0.00000   0.00000   1.00000
 This molecule is an asymmetric top.
 Rotational symmetry number  1.
 Rotational temperatures (Kelvin)      2.58635     0.23740     0.21744
 Rotational constants (GHZ):          53.89069     4.94658     4.53071
    1 imaginary frequencies ignored.
 Zero-point vibrational energy      56943.5 (Joules/Mol)
                                   13.60982 (Kcal/Mol)
 Warning -- explicit consideration of   3 degrees of freedom as
           vibrations may cause significant error
 Vibrational temperatures:    344.34   478.26   580.78  1109.01  1385.80
          (Kelvin)           1966.09  2397.32  5435.86

 Zero-point correction=                           0.021689 (Hartree/Particle)
 Thermal correction to Energy=                    0.025851
 Thermal correction to Enthalpy=                  0.026795
 Thermal correction to Gibbs Free Energy=        -0.004477
 Sum of electronic and zero-point Energies=           -280.424914
 Sum of electronic and thermal Energies=              -280.420752
 Sum of electronic and thermal Enthalpies=            -280.419808
 Sum of electronic and thermal Free Energies=         -280.451079

                     E (Thermal)             CV                S
                      KCal/Mol        Cal/Mol-Kelvin    Cal/Mol-Kelvin
 Total                   16.221             12.094             65.816
 Electronic               0.000              0.000              0.000
 Translational            0.889              2.981             38.341
 Rotational               0.889              2.981             23.102
 Vibrational             14.444              6.133              4.373
 Vibration     1          0.657              1.780              1.808
 Vibration     2          0.714              1.611              1.248
 Vibration     3          0.769              1.462              0.949

                       ! Non-Optimized Parameters !

 1\1\GINC-N2125\Freq\RMP2-FC\Aug-CC-pVTZ\H1N1O3\CGAVINH\21-Feb-2022\1\\
 #p freq mp2/aug-cc-pvtz density=current\\title\\0,1\H\O,1,r1\O,2,r2,1,
 a1\N,3,r3,2,a2,1,d1,0\O,4,r4,3,a3,2,d2,0\\r1=0.96897556\r2=1.45491931\
 r3=1.48434072\r4=1.17072885\a1=97.59494903\a2=102.29752444\a3=109.0695
 5123\d1=180.\d2=180.\\Version=ES64L-G16RevB.01\State=1-A'\HF=-279.4990
 637\MP2=-280.4466022\RMSD=4.173e-09\RMSF=2.583e-03\ZeroPoint=0.0216886
 \Thermal=0.0258505\Dipole=-0.1086586,0.,-0.489373\DipoleDeriv=0.264138
 7,0.,0.0458659,0.,0.3547946,0.,0.0821155,0.,0.2756487,-0.3329419,0.,-0

 Normal termination of Gaussian 16 at Mon Feb 21 20:20:04 2022.
