 Gaussian 16, Revision B.01,
 Gaussian 16:  ES64L-G16RevB.01 20-Dec-2017

 ---------------------------------------
 #p freq mp2/aug-cc-pvtz density=current
 ---------------------------------------

 -----
 title
 -----
 Symbolic Z-matrix:
 Charge =  0 Multiplicity = 1

                         Standard orientation:
 ---------------------------------------------------------------------
 Center     Atomic      Atomic             Coordinates (Angstroms)
 Number     Number       Type             X           Y           Z
 ---------------------------------------------------------------------
      1          1           0        1.549624    1.691991    0.000000
      2          8           0        1.454064    0.722725    0.000000
      3          8           0        0.000000    0.672854    0.000000
      4          7           0       -0.261665   -0.762271   -0.000000
      5          8           0       -1.418811   -0.940091   -0.000000
 ---------------------------------------------------------------------

 SCF Done:  E(RHF) =  -279.501426649     A.U. after   14 cycles
 E2 =    -0.9452855650D+00 EUMP2 =    -0.28044671221381D+03
 E2 =    -0.9452855650D+00 EUMP2 =    -0.28044671221381D+03

 The electronic state is 1-A'.
 Alpha  occ. eigenvalues --  -20.69075 -20.68420 -20.66037 -15.81273  -1.62392
 Alpha  occ. eigenvalues --   -1.49514  -1.25344  -0.94795  -0.77238  -0.75878
 Alpha  occ. eigenvalues --   -0.71168  -0.67860  -0.62031  -0.58919  -0.48505
 Alpha  occ. eigenvalues --   -0.47237
 Alpha virt. eigenvalues --    0.02953   0.07175   0.08597   0.10173   0.13396
 Alpha virt. eigenvalues --    0.13399   0.14386   0.15435   0.17833   0.19419
 Alpha virt. eigenvalues --    0.19982   0.20636   0.22083   0.23556   0.23743

 Mulliken charges:
               1
     1  H    0.254319
     2  O   -0.205649
     3  O   -0.146831
     4  N    0.291407
     5  O   -0.193246
 Sum of Mulliken charges =  -0.00000

 Dipole moment (field-independent basis, Debye):
    X=              0.5109    Y=              1.3671    Z=              0.0000  Tot=              1.4595
 Quadrupole moment (field-independent basis, Debye-Ang):
   XX=            -22.4712   YY=            -18.5963   ZZ=            -22.0166
   XY=              3.2659   XZ=             -0.0000   YZ=              0.0000

  Exact polarizability:  34.025   9.495  30.322   0.000  -0.000  17.940
 Approx polarizability:  29.021   5.112  23.573   0.000   0.000  15.530

 ******    1 imaginary frequencies (negative Signs) ******

                      1                      2                      3
                     A"                     A"                     A'
 Frequencies --    -72.1369               231.0750               345.4950
 Red. masses --      1.1891                 7.5953                 8.8107
 Frc consts  --      0.0036                 0.2389                 0.6196
 IR Inten    --    121.1713                 3.7940                 4.2374

                      4                      5                      6
                     A'                     A'                     A'
 Frequencies --    451.5761               787.0224               967.5325
 Red. masses --     12.3213                13.1206                15.2925
 Frc consts  --      1.4804                 4.7883                 8.4345
 IR Inten    --    200.0481               174.0366                21.7147

                      7                      8                      9
                     A'                     A'                     A'
 Frequencies --   1386.6755              1677.4436              3714.5084
 Red. masses --      1.1301                13.0924                 1.0676
 Frc consts  --      1.2803                21.7053                 8.6785
 IR Inten    --    152.4668               139.4921                81.9162

 - Thermochemistry -
 -------------------
 Temperature   298.150 Kelvin.  Pressure   1.00000 Atm.
 Atom     1 has atomic number  1 and mass   1.00783

 Molecular mass:    62.99564 amu.
 Principal axes and moments of inertia in atomic units:
                           1         2         3
     Eigenvalues --    32.85291 360.20092 393.05383
           X            0.81010  -0.58629   0.00000
           Y            0.58629   0.81010   0.00000
           Z           -0.00000   0.00000   1.00000
 This molecule is an asymmetric top.
 Rotational symmetry number  1.
 Rotational temperatures (Kelvin)      2.63642     0.24046     0.22036
 Rotational constants (GHZ):          54.93398     5.01037     4.59159
    1 imaginary frequencies ignored.
 Zero-point vibrational energy      57189.4 (Joules/Mol)
                                   13.66861 (Kcal/Mol)
 Warning -- explicit consideration of   3 degrees of freedom as
           vibrations may cause significant error
 Vibrational temperatures:    332.47   497.09   649.72  1132.35  1392.06
          (Kelvin)           1995.12  2413.47  5344.35

 Zero-point correction=                           0.021782 (Hartree/Particle)
 Thermal correction to Energy=                    0.025891
 Thermal correction to Enthalpy=                  0.026836
 Thermal correction to Gibbs Free Energy=        -0.004331
 Sum of electronic and zero-point Energies=           -280.424930
 Sum of electronic and thermal Energies=              -280.420821
 Sum of electronic and thermal Enthalpies=            -280.419877
 Sum of electronic and thermal Free Energies=         -280.451043

                     E (Thermal)             CV                S
                      KCal/Mol        Cal/Mol-Kelvin    Cal/Mol-Kelvin
 Total                   16.247             11.934             65.595
 Electronic               0.000              0.000              0.000
 Translational            0.889              2.981             38.341
 Rotational               0.889              2.981             23.057
 Vibrational             14.470              5.972              4.197
 Vibration     1          0.653              1.793              1.871
 Vibration     2          0.724              1.584              1.187
 Vibration     3          0.810              1.357              0.791

                       ! Non-Optimized Parameters !

 1\1\GINC-N2108\Freq\RMP2-FC\Aug-CC-pVTZ\H1N1O3\CGAVINH\21-Feb-2022\1\\
 #p freq mp2/aug-cc-pvtz density=current\\title\\0,1\H\O,1,r1\O,2,r2,1,
 a1\N,3,r3,2,a2,1,d1,0\O,4,r4,3,a3,2,d2,0\\r1=0.97396579\r2=1.45491931\
 r3=1.45878406\r4=1.17072885\a1=97.59494903\a2=102.29752444\a3=109.0695
 5123\d1=180.\d2=180.\\Version=ES64L-G16RevB.01\State=1-A'\HF=-279.5014
 266\MP2=-280.4467122\RMSD=3.791e-09\RMSF=1.720e-03\ZeroPoint=0.0217823
 \Thermal=0.0258914\Dipole=-0.1472588,0.,-0.5549947\DipoleDeriv=0.26697
 5,0.,0.0481446,0.,0.3548626,0.,0.0811623,0.,0.2748678,-0.3280714,0.,-0

 Normal termination of Gaussian 16 at Mon Feb 21 20:01:46 2022.
