 Gaussian 16, Revision B.01,
 Gaussian 16:  ES64L-G16RevB.01 20-Dec-2017

 ---------------------------------------
 #p freq mp2/aug-cc-pvtz density=current
 ---------------------------------------

 -----
 title
 -----
 Symbolic Z-matrix:
 Charge =  0 Multiplicity = 1

                         Standard orientation:
 ---------------------------------------------------------------------
 Center     Atomic      Atomic             Coordinates (Angstroms)
 Number     Number       Type             X           Y           Z
 ---------------------------------------------------------------------
      1          1           0       -0.540081   -1.138559    0.020185
      2          8           0       -1.276910   -0.484553    0.002100
      3          8           0       -0.542920    0.738863   -0.007445
      4          7           0        0.825236    0.551069    0.011045
      5          8           0        1.165258   -0.594175   -0.006842
 ---------------------------------------------------------------------

 SCF Done:  E(RHF) =  -279.506381928     A.U. after   14 cycles
 E2 =    -0.9487899959D+00 EUMP2 =    -0.28045517192397D+03
 E2 =    -0.9487899959D+00 EUMP2 =    -0.28045517192397D+03

 The electronic state is 1-A.
 Alpha  occ. eigenvalues --  -20.71977 -20.68726 -20.66831 -15.82601  -1.64427
 Alpha  occ. eigenvalues --   -1.50516  -1.29376  -0.96036  -0.83465  -0.75893
 Alpha  occ. eigenvalues --   -0.73994  -0.63742  -0.61897  -0.61816  -0.50475
 Alpha  occ. eigenvalues --   -0.49742
 Alpha virt. eigenvalues --    0.03506   0.06021   0.09512   0.10038   0.11948
 Alpha virt. eigenvalues --    0.12279   0.14937   0.15204   0.17746   0.18042
 Alpha virt. eigenvalues --    0.18973   0.21107   0.21674   0.24253   0.24634

 Mulliken charges:
               1
     1  H    0.278005
     2  O   -0.274154
     3  O    0.037747
     4  N    0.154165
     5  O   -0.195763
 Sum of Mulliken charges =  -0.00000

 Dipole moment (field-independent basis, Debye):
    X=              0.6061    Y=             -0.9127    Z=              0.0289  Tot=              1.0960
 Quadrupole moment (field-independent basis, Debye-Ang):
   XX=            -25.1097   YY=            -21.2118   ZZ=            -21.9325
   XY=              0.3824   XZ=             -0.0189   YZ=             -0.0745

  Exact polarizability:  34.499  -0.729  26.274   0.025  -0.005  17.621
 Approx polarizability:  26.141  -1.634  26.075   0.012   0.004  15.518

                      1                      2                      3
                      A                      A                      A
 Frequencies --    352.8371               396.6369               522.8997
 Red. masses --      1.5514                 7.0908                 2.9261
 Frc consts  --      0.1138                 0.6572                 0.4714
 IR Inten    --     63.0558                 7.7829                25.4362

                      4                      5                      6
                      A                      A                      A
 Frequencies --    711.4640               836.9976               970.9898
 Red. masses --     13.3256                12.3711                 9.7722
 Frc consts  --      3.9741                 5.1063                 5.4284
 IR Inten    --    217.2427                30.7118                12.7606

                      7                      8                      9
                      A                      A                      A
 Frequencies --   1434.1893              1570.3095              3487.7309
 Red. masses --      1.3056                 6.3972                 1.0638
 Frc consts  --      1.5823                 9.2941                 7.6239
 IR Inten    --     79.9208               150.1749                42.6465

 - Thermochemistry -
 -------------------
 Temperature   298.150 Kelvin.  Pressure   1.00000 Atm.
 Atom     1 has atomic number  1 and mass   1.00783

 Molecular mass:    62.99564 amu.
 Principal axes and moments of inertia in atomic units:
                           1         2         3
     Eigenvalues --    84.51563 222.66273 307.15127
           X            0.99987   0.01593  -0.00019
           Y           -0.01593   0.99987  -0.00098
           Z            0.00017   0.00099   1.00000
 This molecule is an asymmetric top.
 Rotational symmetry number  1.
 Rotational temperatures (Kelvin)      1.02483     0.38899     0.28199
 Rotational constants (GHZ):          21.35393     8.10527     5.87574
 Zero-point vibrational energy      61512.3 (Joules/Mol)
                                   14.70179 (Kcal/Mol)
 Warning -- explicit consideration of   3 degrees of freedom as
           vibrations may cause significant error
 Vibrational temperatures:    507.65   570.67   752.34  1023.64  1204.25
          (Kelvin)           1397.04  2063.48  2259.33  5018.07

 Zero-point correction=                           0.023429 (Hartree/Particle)
 Thermal correction to Energy=                    0.027368
 Thermal correction to Enthalpy=                  0.028312
 Thermal correction to Gibbs Free Energy=        -0.002547
 Sum of electronic and zero-point Energies=           -280.431743
 Sum of electronic and thermal Energies=              -280.427804
 Sum of electronic and thermal Enthalpies=            -280.426860
 Sum of electronic and thermal Free Energies=         -280.457718

                     E (Thermal)             CV                S
                      KCal/Mol        Cal/Mol-Kelvin    Cal/Mol-Kelvin
 Total                   17.173             12.169             64.947
 Electronic               0.000              0.000              0.000
 Translational            0.889              2.981             38.341
 Rotational               0.889              2.981             23.273
 Vibrational             15.396              6.208              3.333
 Vibration     1          0.729              1.569              1.153
 Vibration     2          0.763              1.477              0.975
 Vibration     3          0.878              1.199              0.603

                       ! Non-Optimized Parameters !

 1\1\GINC-N2199\Freq\RMP2-FC\Aug-CC-pVTZ\H1N1O3\CGAVINH\06-Mar-2022\1\\
 #p freq mp2/aug-cc-pvtz density=current\\title\\0,1\H\O,1,r1\O,2,r2,1,
 a1\N,3,r3,2,a2,1,d1,0\O,4,r4,3,a3,2,d2,0\\r1=0.98537664\r2=1.42673666\
 r3=1.38110764\r4=1.19478846\a1=100.6355057\a2=113.13777052\a3=114.3339
 2022\d1=0.\d2=2.03320975\\Version=ES64L-G16RevB.01\State=1-A\HF=-279.5
 063819\MP2=-280.4551719\RMSD=7.933e-09\RMSF=1.076e-03\ZeroPoint=0.0234
 288\Thermal=0.0273677\Dipole=-0.1102558,-0.0033366,-0.4168369\DipoleDe
 riv=0.3167826,0.001547,0.0380057,0.0019707,0.2981078,-0.0002024,-0.024

 Normal termination of Gaussian 16 at Sun Mar  6 20:00:54 2022.
