 Gaussian 16, Revision B.01,
 Gaussian 16:  ES64L-G16RevB.01 20-Dec-2017

 ---------------------------------------
 #p freq mp2/aug-cc-pvtz density=current
 ---------------------------------------

 -----
 title
 -----
 Symbolic Z-matrix:
 Charge =  0 Multiplicity = 1

                         Standard orientation:
 ---------------------------------------------------------------------
 Center     Atomic      Atomic             Coordinates (Angstroms)
 Number     Number       Type             X           Y           Z
 ---------------------------------------------------------------------
      1          1           0        1.105721   -0.593848    0.000000
      2          8           0        1.310443    0.370028    0.000000
      3          8           0       -0.000000    0.916227    0.000000
      4          7           0       -0.989532   -0.047248    0.000000
      5          8           0       -0.582817   -1.170682    0.000000
 ---------------------------------------------------------------------

 SCF Done:  E(RHF) =  -279.506822890     A.U. after   14 cycles
 E2 =    -0.9483925229D+00 EUMP2 =    -0.28045521541313D+03
 E2 =    -0.9483925229D+00 EUMP2 =    -0.28045521541313D+03

 The electronic state is 1-A'.
 Alpha  occ. eigenvalues --  -20.71985 -20.68737 -20.66762 -15.82593  -1.64545
 Alpha  occ. eigenvalues --   -1.50755  -1.29288  -0.96074  -0.83599  -0.75943
 Alpha  occ. eigenvalues --   -0.74098  -0.63637  -0.62039  -0.61911  -0.50496
 Alpha  occ. eigenvalues --   -0.49632
 Alpha virt. eigenvalues --    0.03515   0.06022   0.09513   0.10046   0.11966
 Alpha virt. eigenvalues --    0.12275   0.14953   0.15270   0.17751   0.18024
 Alpha virt. eigenvalues --    0.18974   0.21105   0.21678   0.24589   0.24636

 Mulliken charges:
               1
     1  H    0.276739
     2  O   -0.273406
     3  O    0.039945
     4  N    0.152709
     5  O   -0.195988
 Sum of Mulliken charges =  -0.00000

 Dipole moment (field-independent basis, Debye):
    X=              0.0639    Y=             -1.0846    Z=              0.0000  Tot=              1.0865
 Quadrupole moment (field-independent basis, Debye-Ang):
   XX=            -23.3786   YY=            -22.9536   ZZ=            -21.9240
   XY=             -1.9584   XZ=              0.0000   YZ=              0.0000

  Exact polarizability:  30.803   4.181  29.859   0.000   0.000  17.600
 Approx polarizability:  24.419   0.571  27.634  -0.000  -0.000  15.504

                      1                      2                      3
                     A"                     A'                     A"
 Frequencies --    353.9051               398.2623               524.1320
 Red. masses --      1.5616                 7.0504                 2.8932
 Frc consts  --      0.1152                 0.6589                 0.4683
 IR Inten    --     62.5175                 7.8575                25.5696

                      4                      5                      6
                     A'                     A'                     A'
 Frequencies --    713.3060               848.9677               980.0155
 Red. masses --     13.3577                11.9853                10.0834
 Frc consts  --      4.0044                 5.0896                 5.7059
 IR Inten    --    219.3018                30.5141                12.3585

                      7                      8                      9
                     A'                     A'                     A'
 Frequencies --   1440.3349              1572.1337              3484.5230
 Red. masses --      1.3251                 5.9568                 1.0636
 Frc consts  --      1.6197                 8.6744                 7.6090
 IR Inten    --     79.7093               150.9920                43.1063

 - Thermochemistry -
 -------------------
 Temperature   298.150 Kelvin.  Pressure   1.00000 Atm.
 Atom     1 has atomic number  1 and mass   1.00783

 Molecular mass:    62.99564 amu.
 Principal axes and moments of inertia in atomic units:
                           1         2         3
     Eigenvalues --    84.11308 222.08523 306.19831
           X            0.79258  -0.60976   0.00000
           Y            0.60976   0.79258   0.00000
           Z            0.00000   0.00000   1.00000
 This molecule is an asymmetric top.
 Rotational symmetry number  1.
 Rotational temperatures (Kelvin)      1.02973     0.39000     0.28287
 Rotational constants (GHZ):          21.45613     8.12635     5.89403
 Zero-point vibrational energy      61700.9 (Joules/Mol)
                                   14.74686 (Kcal/Mol)
 Warning -- explicit consideration of   3 degrees of freedom as
           vibrations may cause significant error
 Vibrational temperatures:    509.19   573.01   754.11  1026.29  1221.48
          (Kelvin)           1410.02  2072.32  2261.95  5013.45

 Zero-point correction=                           0.023501 (Hartree/Particle)
 Thermal correction to Energy=                    0.027431
 Thermal correction to Enthalpy=                  0.028375
 Thermal correction to Gibbs Free Energy=        -0.002465
 Sum of electronic and zero-point Energies=           -280.431715
 Sum of electronic and thermal Energies=              -280.427785
 Sum of electronic and thermal Enthalpies=            -280.426841
 Sum of electronic and thermal Free Energies=         -280.457681

                     E (Thermal)             CV                S
                      KCal/Mol        Cal/Mol-Kelvin    Cal/Mol-Kelvin
 Total                   17.213             12.127             64.908
 Electronic               0.000              0.000              0.000
 Translational            0.889              2.981             38.341
 Rotational               0.889              2.981             23.263
 Vibrational             15.436              6.165              3.305
 Vibration     1          0.730              1.567              1.149
 Vibration     2          0.765              1.474              0.969
 Vibration     3          0.879              1.197              0.600

                       ! Non-Optimized Parameters !

 1\1\GINC-N2398\Freq\RMP2-FC\Aug-CC-pVTZ\H1N1O3\CGAVINH\06-Mar-2022\1\\
 #p freq mp2/aug-cc-pvtz density=current\\title\\0,1\H\O,1,r1\O,2,r2,1,
 a1\N,3,r3,2,a2,1,d1,0\O,4,r4,3,a3,2,d2,0\\r1=0.98537664\r2=1.41971602\
 r3=1.38110764\r4=1.19478846\a1=100.6355057\a2=113.13777052\a3=114.3339
 2022\d1=0.\d2=0.\\Version=ES64L-G16RevB.01\State=1-A'\HF=-279.5068229\
 MP2=-280.4552154\RMSD=4.300e-09\RMSF=1.224e-03\ZeroPoint=0.0235006\The
 rmal=0.0274306\Dipole=-0.113247,0.,-0.4121709\DipoleDeriv=0.3169906,0.
 ,0.0381464,0.,0.2977207,0.,-0.0267172,0.,0.2006855,-0.5277477,0.,0.288

 Normal termination of Gaussian 16 at Sun Mar  6 19:01:15 2022.
