 Gaussian 16, Revision B.01,
 Gaussian 16:  ES64L-G16RevB.01 20-Dec-2017

 ---------------------------------------
 #p freq mp2/aug-cc-pvtz density=current
 ---------------------------------------

 -----
 title
 -----
 Symbolic Z-matrix:
 Charge =  0 Multiplicity = 1

                         Standard orientation:
 ---------------------------------------------------------------------
 Center     Atomic      Atomic             Coordinates (Angstroms)
 Number     Number       Type             X           Y           Z
 ---------------------------------------------------------------------
      1          1           0        1.550258    1.697895    0.000000
      2          8           0        1.454066    0.722492    0.000000
      3          8           0        0.000000    0.672662    0.000000
      4          7           0       -0.261705   -0.762455   -0.000000
      5          8           0       -1.418856   -0.940243   -0.000000
 ---------------------------------------------------------------------

 SCF Done:  E(RHF) =  -279.501042526     A.U. after   14 cycles
 E2 =    -0.9455811334D+00 EUMP2 =    -0.28044662365916D+03
 E2 =    -0.9455811334D+00 EUMP2 =    -0.28044662365916D+03

 The electronic state is 1-A'.
 Alpha  occ. eigenvalues --  -20.69059 -20.68408 -20.66084 -15.81260  -1.62377
 Alpha  occ. eigenvalues --   -1.49440  -1.25226  -0.94781  -0.77191  -0.75827
 Alpha  occ. eigenvalues --   -0.71153  -0.67764  -0.62013  -0.58889  -0.48485
 Alpha  occ. eigenvalues --   -0.47220
 Alpha virt. eigenvalues --    0.02941   0.07184   0.08599   0.10175   0.13396
 Alpha virt. eigenvalues --    0.13404   0.14359   0.15412   0.17841   0.19420
 Alpha virt. eigenvalues --    0.19984   0.20636   0.22085   0.23573   0.23748

 Mulliken charges:
               1
     1  H    0.259140
     2  O   -0.210484
     3  O   -0.146412
     4  N    0.290992
     5  O   -0.193236
 Sum of Mulliken charges =  -0.00000

 Dipole moment (field-independent basis, Debye):
    X=              0.5141    Y=              1.3750    Z=              0.0000  Tot=              1.4679
 Quadrupole moment (field-independent basis, Debye-Ang):
   XX=            -22.4740   YY=            -18.5722   ZZ=            -22.0244
   XY=              3.2780   XZ=             -0.0000   YZ=              0.0000

  Exact polarizability:  34.053   9.524  30.409   0.000   0.000  17.955
 Approx polarizability:  29.038   5.120  23.638   0.000   0.000  15.540

                      1                      2                      3
                     A"                     A"                     A'
 Frequencies --    218.7219               283.6927               349.9553
 Red. masses --      8.9419                 1.1625                 9.0301
 Frc consts  --      0.2520                 0.0551                 0.6516
 IR Inten    --     14.0963               110.2071                 3.8263

                      4                      5                      6
                     A'                     A'                     A'
 Frequencies --    451.4750               788.7692               967.8027
 Red. masses --     12.3279                13.3313                15.1681
 Frc consts  --      1.4805                 4.8868                 8.3706
 IR Inten    --    200.4293               177.6531                20.7609

                      7                      8                      9
                     A'                     A'                     A'
 Frequencies --   1404.4588              1677.5759              3636.3905
 Red. masses --      1.1270                12.9413                 1.0676
 Frc consts  --      1.3098                21.4582                 8.3174
 IR Inten    --    152.0141               138.2554                81.1317

 - Thermochemistry -
 -------------------
 Temperature   298.150 Kelvin.  Pressure   1.00000 Atm.
 Atom     1 has atomic number  1 and mass   1.00783

 Molecular mass:    62.99564 amu.
 Principal axes and moments of inertia in atomic units:
                           1         2         3
     Eigenvalues --    32.86859 360.26818 393.13677
           X            0.81004  -0.58638   0.00000
           Y            0.58638   0.81004   0.00000
           Z           -0.00000   0.00000   1.00000
 This molecule is an asymmetric top.
 Rotational symmetry number  1.
 Rotational temperatures (Kelvin)      2.63516     0.24042     0.22031
 Rotational constants (GHZ):          54.90778     5.00944     4.59062
 Zero-point vibrational energy      58490.5 (Joules/Mol)
                                   13.97956 (Kcal/Mol)
 Warning -- explicit consideration of   4 degrees of freedom as
           vibrations may cause significant error
 Vibrational temperatures:    314.69   408.17   503.51   649.57  1134.86
          (Kelvin)           1392.45  2020.70  2413.66  5231.95

 Zero-point correction=                           0.022278 (Hartree/Particle)
 Thermal correction to Energy=                    0.026840
 Thermal correction to Enthalpy=                  0.027784
 Thermal correction to Gibbs Free Energy=        -0.004137
 Sum of electronic and zero-point Energies=           -280.424346
 Sum of electronic and thermal Energies=              -280.419783
 Sum of electronic and thermal Enthalpies=            -280.418839
 Sum of electronic and thermal Free Energies=         -280.450760

                     E (Thermal)             CV                S
                      KCal/Mol        Cal/Mol-Kelvin    Cal/Mol-Kelvin
 Total                   16.843             13.638             67.184
 Electronic               0.000              0.000              0.000
 Translational            0.889              2.981             38.341
 Rotational               0.889              2.981             23.058
 Vibrational             15.065              7.677              5.785
 Vibration     1          0.646              1.813              1.970
 Vibration     2          0.682              1.704              1.511
 Vibration     3          0.727              1.575              1.166
 Vibration     4          0.810              1.358              0.791

                       ! Non-Optimized Parameters !

 1\1\GINC-N2124\Freq\RMP2-FC\Aug-CC-pVTZ\H1N1O3\CGAVINH\21-Feb-2022\1\\
 #p freq mp2/aug-cc-pvtz density=current\\title\\0,1\H\O,1,r1\O,2,r2,1,
 a1\N,3,r3,2,a2,1,d1,0\O,4,r4,3,a3,2,d2,0\\r1=0.98013405\r2=1.45491931\
 r3=1.45878406\r4=1.17072885\a1=97.59494903\a2=102.29752444\a3=109.0695
 5123\d1=180.\d2=180.\\Version=ES64L-G16RevB.01\State=1-A'\HF=-279.5010
 425\MP2=-280.4466237\RMSD=3.793e-09\RMSF=3.771e-03\ZeroPoint=0.0222778
 \Thermal=0.0268402\Dipole=-0.1481978,0.,-0.5581934\DipoleDeriv=0.26771
 09,0.,0.0479569,0.,0.3540157,0.,0.0799526,0.,0.2739566,-0.3280396,0.,-

 Normal termination of Gaussian 16 at Mon Feb 21 20:02:19 2022.
