 Gaussian 16, Revision B.01,
 Gaussian 16:  ES64L-G16RevB.01 20-Dec-2017

 ---------------------------------------
 #p freq mp2/aug-cc-pvtz density=current
 ---------------------------------------

 -----
 title
 -----
 Symbolic Z-matrix:
 Charge =  0 Multiplicity = 1

                         Standard orientation:
 ---------------------------------------------------------------------
 Center     Atomic      Atomic             Coordinates (Angstroms)
 Number     Number       Type             X           Y           Z
 ---------------------------------------------------------------------
      1          1           0        1.106560   -0.610432    0.000000
      2          8           0        1.315882    0.366001    0.000000
      3          8           0        0.000000    0.917393    0.000000
      4          7           0       -0.991354   -0.044207    0.000000
      5          8           0       -0.586767   -1.168409    0.000000
 ---------------------------------------------------------------------

 SCF Done:  E(RHF) =  -279.505499959     A.U. after   14 cycles
 E2 =    -0.9496085275D+00 EUMP2 =    -0.28045510848686D+03
 E2 =    -0.9496085275D+00 EUMP2 =    -0.28045510848686D+03

 The electronic state is 1-A'.
 Alpha  occ. eigenvalues --  -20.71961 -20.68741 -20.66869 -15.82602  -1.64407
 Alpha  occ. eigenvalues --   -1.50406  -1.29139  -0.95957  -0.83412  -0.75877
 Alpha  occ. eigenvalues --   -0.73976  -0.63436  -0.61836  -0.61810  -0.50485
 Alpha  occ. eigenvalues --   -0.49695
 Alpha virt. eigenvalues --    0.03496   0.06019   0.09519   0.10034   0.11982
 Alpha virt. eigenvalues --    0.12264   0.14908   0.15193   0.17775   0.18039
 Alpha virt. eigenvalues --    0.18982   0.21084   0.21657   0.24298   0.24639

 Mulliken charges:
               1
     1  H    0.285139
     2  O   -0.282555
     3  O    0.037953
     4  N    0.154843
     5  O   -0.195381
 Sum of Mulliken charges =  -0.00000

 Dipole moment (field-independent basis, Debye):
    X=              0.0475    Y=             -1.1061    Z=              0.0000  Tot=              1.1072
 Quadrupole moment (field-independent basis, Debye-Ang):
   XX=            -23.3979   YY=            -22.9227   ZZ=            -21.9499
   XY=             -1.9863   XZ=              0.0000   YZ=              0.0000

  Exact polarizability:  31.005   4.141  29.948   0.000   0.000  17.651
 Approx polarizability:  24.632   0.542  27.775  -0.000  -0.000  15.535

                      1                      2                      3
                     A'                     A"                     A"
 Frequencies --    400.2263               448.3626               595.0880
 Red. masses --      7.1707                 4.5768                 1.3040
 Frc consts  --      0.6767                 0.5421                 0.2721
 IR Inten    --      7.6597                18.2054                68.8428

                      4                      5                      6
                     A'                     A'                     A'
 Frequencies --    712.4123               835.9979               974.8114
 Red. masses --     13.6105                12.2155                10.5293
 Frc consts  --      4.0699                 5.0301                 5.8951
 IR Inten    --    215.6650                30.5497                10.9981

                      7                      8                      9
                     A'                     A'                     A'
 Frequencies --   1452.8295              1574.4516              3322.6131
 Red. masses --      1.3568                 5.1423                 1.0632
 Frc consts  --      1.6873                 7.5104                 6.9156
 IR Inten    --     82.4322               153.1391                44.3885

 - Thermochemistry -
 -------------------
 Temperature   298.150 Kelvin.  Pressure   1.00000 Atm.
 Atom     1 has atomic number  1 and mass   1.00783

 Molecular mass:    62.99564 amu.
 Principal axes and moments of inertia in atomic units:
                           1         2         3
     Eigenvalues --    84.60057 222.57054 307.17111
           X            0.79614  -0.60511   0.00000
           Y            0.60511   0.79614   0.00000
           Z            0.00000   0.00000   1.00000
 This molecule is an asymmetric top.
 Rotational symmetry number  1.
 Rotational temperatures (Kelvin)      1.02380     0.38915     0.28197
 Rotational constants (GHZ):          21.33249     8.10863     5.87536
 Zero-point vibrational energy      61708.1 (Joules/Mol)
                                   14.74860 (Kcal/Mol)
 Warning -- explicit consideration of   3 degrees of freedom as
           vibrations may cause significant error
 Vibrational temperatures:    575.84   645.09   856.20  1025.00  1202.81
          (Kelvin)           1402.54  2090.30  2265.28  4780.50

 Zero-point correction=                           0.023503 (Hartree/Particle)
 Thermal correction to Energy=                    0.027300
 Thermal correction to Enthalpy=                  0.028244
 Thermal correction to Gibbs Free Energy=        -0.002371
 Sum of electronic and zero-point Energies=           -280.431605
 Sum of electronic and thermal Energies=              -280.427809
 Sum of electronic and thermal Enthalpies=            -280.426865
 Sum of electronic and thermal Free Energies=         -280.457479

                     E (Thermal)             CV                S
                      KCal/Mol        Cal/Mol-Kelvin    Cal/Mol-Kelvin
 Total                   17.131             11.788             64.433
 Electronic               0.000              0.000              0.000
 Translational            0.889              2.981             38.341
 Rotational               0.889              2.981             23.274
 Vibrational             15.353              5.827              2.819
 Vibration     1          0.766              1.470              0.962
 Vibration     2          0.807              1.365              0.801
 Vibration     3          0.953              1.042              0.458

                       ! Non-Optimized Parameters !

 1\1\GINC-N2219\Freq\RMP2-FC\Aug-CC-pVTZ\H1N1O3\CGAVINH\06-Mar-2022\1\\
 #p freq mp2/aug-cc-pvtz density=current\\title\\0,1\H\O,1,r1\O,2,r2,1,
 a1\N,3,r3,2,a2,1,d1,0\O,4,r4,3,a3,2,d2,0\\r1=0.9986174\r2=1.42673666\r
 3=1.38110764\r4=1.19478846\a1=100.6355057\a2=113.13777052\a3=114.33392
 022\d1=0.\d2=0.\\Version=ES64L-G16RevB.01\State=1-A'\HF=-279.5055\MP2=
 -280.4551085\RMSD=4.609e-09\RMSF=3.725e-03\ZeroPoint=0.0235034\Thermal
 =0.0272995\Dipole=-0.1094823,0.,-0.4216084\DipoleDeriv=0.3220149,0.,0.
 035941,0.,0.2960279,0.,-0.0310726,0.,0.202898,-0.5293728,0.,0.2813389,

 Normal termination of Gaussian 16 at Sun Mar  6 18:50:39 2022.
