 Gaussian 16, Revision B.01,
 Gaussian 16:  ES64L-G16RevB.01 20-Dec-2017

 ---------------------------------------
 #p freq mp2/aug-cc-pvtz density=current
 ---------------------------------------

 -----
 title
 -----
 Symbolic Z-matrix:
 Charge =  0 Multiplicity = 1

                         Standard orientation:
 ---------------------------------------------------------------------
 Center     Atomic      Atomic             Coordinates (Angstroms)
 Number     Number       Type             X           Y           Z
 ---------------------------------------------------------------------
      1          1           0        1.109781   -0.598553    0.000000
      2          8           0        1.316044    0.364994    0.000000
      3          8           0        0.000000    0.915999    0.000000
      4          7           0       -0.991071   -0.045892    0.000000
      5          8           0       -0.587579   -1.166018    0.000000
 ---------------------------------------------------------------------

 SCF Done:  E(RHF) =  -279.507124261     A.U. after   14 cycles
 E2 =    -0.9480905828D+00 EUMP2 =    -0.28045521484332D+03
 E2 =    -0.9480905828D+00 EUMP2 =    -0.28045521484332D+03

 The electronic state is 1-A'.
 Alpha  occ. eigenvalues --  -20.71884 -20.68747 -20.66791 -15.82534  -1.64667
 Alpha  occ. eigenvalues --   -1.50613  -1.29336  -0.95972  -0.83561  -0.75983
 Alpha  occ. eigenvalues --   -0.74063  -0.63741  -0.61934  -0.61881  -0.50394
 Alpha  occ. eigenvalues --   -0.49724
 Alpha virt. eigenvalues --    0.03504   0.06156   0.09514   0.10041   0.11962
 Alpha virt. eigenvalues --    0.12264   0.14932   0.15205   0.17766   0.18031
 Alpha virt. eigenvalues --    0.18979   0.21101   0.21673   0.24294   0.24643

 Mulliken charges:
               1
     1  H    0.277567
     2  O   -0.274492
     3  O    0.036955
     4  N    0.153904
     5  O   -0.193934
 Sum of Mulliken charges =  -0.00000

 Dipole moment (field-independent basis, Debye):
    X=              0.0419    Y=             -1.1128    Z=              0.0000  Tot=              1.1136
 Quadrupole moment (field-independent basis, Debye-Ang):
   XX=            -23.3709   YY=            -22.9364   ZZ=            -21.9250
   XY=             -1.9646   XZ=              0.0000   YZ=              0.0000

  Exact polarizability:  30.889   4.115  29.766   0.000   0.000  17.608
 Approx polarizability:  24.535   0.527  27.551  -0.000  -0.000  15.496

                      1                      2                      3
                     A"                     A'                     A"
 Frequencies --    351.3220               396.6843               519.3796
 Red. masses --      1.5768                 7.0775                 2.8442
 Frc consts  --      0.1147                 0.6562                 0.4521
 IR Inten    --     61.9139                 7.5987                26.3604

                      4                      5                      6
                     A'                     A'                     A'
 Frequencies --    709.7299               836.8139               971.9378
 Red. masses --     13.4285                12.3388                 9.7218
 Frc consts  --      3.9853                 5.0907                 5.4110
 IR Inten    --    219.1241                29.0639                12.4374

                      7                      8                      9
                     A'                     A'                     A'
 Frequencies --   1436.1774              1592.7523              3488.0662
 Red. masses --      1.2701                 7.4177                 1.0637
 Frc consts  --      1.5435                11.0870                 7.6253
 IR Inten    --     80.7090               154.0980                42.6227

 - Thermochemistry -
 -------------------
 Temperature   298.150 Kelvin.  Pressure   1.00000 Atm.
 Atom     1 has atomic number  1 and mass   1.00783

 Molecular mass:    62.99564 amu.
 Principal axes and moments of inertia in atomic units:
                           1         2         3
     Eigenvalues --    84.25578 222.44142 306.69721
           X            0.79743  -0.60340   0.00000
           Y            0.60340   0.79743   0.00000
           Z            0.00000   0.00000   1.00000
 This molecule is an asymmetric top.
 Rotational symmetry number  1.
 Rotational temperatures (Kelvin)      1.02799     0.38938     0.28241
 Rotational constants (GHZ):          21.41979     8.11333     5.88444
 Zero-point vibrational energy      61624.8 (Joules/Mol)
                                   14.72868 (Kcal/Mol)
 Warning -- explicit consideration of   3 degrees of freedom as
           vibrations may cause significant error
 Vibrational temperatures:    505.47   570.74   747.27  1021.14  1203.99
          (Kelvin)           1398.40  2066.34  2291.62  5018.55

 Zero-point correction=                           0.023472 (Hartree/Particle)
 Thermal correction to Energy=                    0.027415
 Thermal correction to Enthalpy=                  0.028359
 Thermal correction to Gibbs Free Energy=        -0.002504
 Sum of electronic and zero-point Energies=           -280.431743
 Sum of electronic and thermal Energies=              -280.427800
 Sum of electronic and thermal Enthalpies=            -280.426856
 Sum of electronic and thermal Free Energies=         -280.457719

                     E (Thermal)             CV                S
                      KCal/Mol        Cal/Mol-Kelvin    Cal/Mol-Kelvin
 Total                   17.203             12.178             64.957
 Electronic               0.000              0.000              0.000
 Translational            0.889              2.981             38.341
 Rotational               0.889              2.981             23.268
 Vibrational             15.426              6.216              3.349
 Vibration     1          0.728              1.573              1.160
 Vibration     2          0.763              1.477              0.975
 Vibration     3          0.874              1.207              0.611

                       ! Non-Optimized Parameters !

 1\1\GINC-N2398\Freq\RMP2-FC\Aug-CC-pVTZ\H1N1O3\CGAVINH\06-Mar-2022\1\\
 #p freq mp2/aug-cc-pvtz density=current\\title\\0,1\H\O,1,r1\O,2,r2,1,
 a1\N,3,r3,2,a2,1,d1,0\O,4,r4,3,a3,2,d2,0\\r1=0.98537664\r2=1.42673666\
 r3=1.38110764\r4=1.19058336\a1=100.6355057\a2=113.13777052\a3=114.3339
 2022\d1=0.\d2=0.\\Version=ES64L-G16RevB.01\State=1-A'\HF=-279.5071243\
 MP2=-280.4552148\RMSD=4.048e-09\RMSF=2.154e-03\ZeroPoint=0.0234717\The
 rmal=0.0274148\Dipole=-0.1077559,0.,-0.4246563\DipoleDeriv=0.3167983,0
 .,0.0377626,0.,0.2980837,0.,-0.0246584,0.,0.1994981,-0.5279539,0.,0.28

 Normal termination of Gaussian 16 at Sun Mar  6 19:18:49 2022.
