 Gaussian 16, Revision B.01,
 Gaussian 16:  ES64L-G16RevB.01 20-Dec-2017

 ---------------------------------------
 #p freq mp2/aug-cc-pvtz density=current
 ---------------------------------------

 -----
 title
 -----
 Symbolic Z-matrix:
 Charge =  0 Multiplicity = 1

                         Standard orientation:
 ---------------------------------------------------------------------
 Center     Atomic      Atomic             Coordinates (Angstroms)
 Number     Number       Type             X           Y           Z
 ---------------------------------------------------------------------
      1          1           0        1.524747    1.714444    0.000000
      2          8           0        1.452481    0.748167    0.000000
      3          8           0       -0.000000    0.663964    0.000000
      4          7           0       -0.259318   -0.771587   -0.000000
      5          8           0       -1.416171   -0.951299   -0.000000
 ---------------------------------------------------------------------

 SCF Done:  E(RHF) =  -279.501709078     A.U. after   14 cycles
 E2 =    -0.9449574576D+00 EUMP2 =    -0.28044666653544D+03
 E2 =    -0.9449574576D+00 EUMP2 =    -0.28044666653544D+03

 The electronic state is 1-A'.
 Alpha  occ. eigenvalues --  -20.69051 -20.68458 -20.66040 -15.81322  -1.62399
 Alpha  occ. eigenvalues --   -1.49538  -1.25500  -0.94783  -0.77183  -0.75968
 Alpha  occ. eigenvalues --   -0.71161  -0.68125  -0.62079  -0.58848  -0.48511
 Alpha  occ. eigenvalues --   -0.47224
 Alpha virt. eigenvalues --    0.02963   0.07152   0.08597   0.10206   0.13381
 Alpha virt. eigenvalues --    0.13382   0.14392   0.15410   0.17831   0.19430
 Alpha virt. eigenvalues --    0.19994   0.20618   0.22068   0.23526   0.23727

 Mulliken charges:
               1
     1  H    0.251963
     2  O   -0.204165
     3  O   -0.145308
     4  N    0.289560
     5  O   -0.192050
 Sum of Mulliken charges =  -0.00000

 Dipole moment (field-independent basis, Debye):
    X=              0.4762    Y=              1.3701    Z=              0.0000  Tot=              1.4505
 Quadrupole moment (field-independent basis, Debye-Ang):
   XX=            -22.6016   YY=            -18.4881   ZZ=            -22.0128
   XY=              3.2105   XZ=              0.0000   YZ=             -0.0000

  Exact polarizability:  33.982   9.641  30.505   0.000   0.000  17.942
 Approx polarizability:  28.991   5.264  23.604   0.000   0.000  15.527

 ******    1 imaginary frequencies (negative Signs) ******

                      1                      2                      3
                     A"                     A"                     A'
 Frequencies --   -277.3556               231.7294               337.2074
 Red. masses --      1.1402                10.5959                 8.7772
 Frc consts  --      0.0517                 0.3352                 0.5880
 IR Inten    --    124.5684                 0.7845                 1.6751

                      4                      5                      6
                     A'                     A'                     A'
 Frequencies --    442.2638               784.6452               967.6699
 Red. masses --     11.9142                12.7751                15.2857
 Frc consts  --      1.3730                 4.6341                 8.4332
 IR Inten    --    202.3858               172.2541                23.8940

                      7                      8                      9
                     A'                     A'                     A'
 Frequencies --   1371.5922              1676.6184              3778.7049
 Red. masses --      1.1354                13.2422                 1.0676
 Frc consts  --      1.2584                21.9321                 8.9814
 IR Inten    --    154.5860               140.1772                84.8452

 - Thermochemistry -
 -------------------
 Temperature   298.150 Kelvin.  Pressure   1.00000 Atm.
 Atom     1 has atomic number  1 and mass   1.00783

 Molecular mass:    62.99564 amu.
 Principal axes and moments of inertia in atomic units:
                           1         2         3
     Eigenvalues --    32.19830 363.48817 395.68646
           X            0.80458  -0.59385   0.00000
           Y            0.59385   0.80458   0.00000
           Z            0.00000  -0.00000   1.00000
 This molecule is an asymmetric top.
 Rotational symmetry number  1.
 Rotational temperatures (Kelvin)      2.69002     0.23829     0.21890
 Rotational constants (GHZ):          56.05082     4.96506     4.56104
    1 imaginary frequencies ignored.
 Zero-point vibrational energy      57363.5 (Joules/Mol)
                                   13.71021 (Kcal/Mol)
 Warning -- explicit consideration of   3 degrees of freedom as
           vibrations may cause significant error
 Vibrational temperatures:    333.41   485.17   636.32  1128.93  1392.26
          (Kelvin)           1973.42  2412.28  5436.71

 Zero-point correction=                           0.021849 (Hartree/Particle)
 Thermal correction to Energy=                    0.025975
 Thermal correction to Enthalpy=                  0.026920
 Thermal correction to Gibbs Free Energy=        -0.004276
 Sum of electronic and zero-point Energies=           -280.424818
 Sum of electronic and thermal Energies=              -280.420691
 Sum of electronic and thermal Enthalpies=            -280.419747
 Sum of electronic and thermal Free Energies=         -280.450942

                     E (Thermal)             CV                S
                      KCal/Mol        Cal/Mol-Kelvin    Cal/Mol-Kelvin
 Total                   16.300             11.980             65.656
 Electronic               0.000              0.000              0.000
 Translational            0.889              2.981             38.341
 Rotational               0.889              2.981             23.053
 Vibrational             14.522              6.018              4.263
 Vibration     1          0.653              1.792              1.866
 Vibration     2          0.718              1.601              1.225
 Vibration     3          0.802              1.378              0.820

                       ! Non-Optimized Parameters !

 1\1\GINC-N2109\Freq\RMP2-FC\Aug-CC-pVTZ\H1N1O3\CGAVINH\21-Feb-2022\1\\
 #p freq mp2/aug-cc-pvtz density=current\\title\\0,1\H\O,1,r1\O,2,r2,1,
 a1\N,3,r3,2,a2,1,d1,0\O,4,r4,3,a3,2,d2,0\\r1=0.96897556\r2=1.45491931\
 r3=1.45878406\r4=1.17072885\a1=97.59494903\a2=103.5573325\a3=109.06955
 123\d1=180.\d2=180.\\Version=ES64L-G16RevB.01\State=1-A'\HF=-279.50170
 91\MP2=-280.4466665\RMSD=3.803e-09\RMSF=1.335e-03\ZeroPoint=0.0218486\
 Thermal=0.0259753\Dipole=-0.1466381,0.,-0.5515255\DipoleDeriv=0.264740
 7,0.,0.0467159,0.,0.355632,0.,0.0852323,0.,0.2783874,-0.3374728,0.,-0.

 Normal termination of Gaussian 16 at Mon Feb 21 20:45:43 2022.
