 Gaussian 16, Revision B.01,
 Gaussian 16:  ES64L-G16RevB.01 20-Dec-2017

 ---------------------------------------
 #p freq mp2/aug-cc-pvtz density=current
 ---------------------------------------

 -----
 title
 -----
 Symbolic Z-matrix:
 Charge =  0 Multiplicity = 1

                         Standard orientation:
 ---------------------------------------------------------------------
 Center     Atomic      Atomic             Coordinates (Angstroms)
 Number     Number       Type             X           Y           Z
 ---------------------------------------------------------------------
      1          1           0        1.108019   -0.596875    0.000000
      2          8           0        1.315402    0.366432    0.000000
      3          8           0       -0.000000    0.918967    0.000000
      4          7           0       -0.992190   -0.041771    0.000000
      5          8           0       -0.585738   -1.174240    0.000000
 ---------------------------------------------------------------------

 SCF Done:  E(RHF) =  -279.504896987     A.U. after   14 cycles
 E2 =    -0.9502586867D+00 EUMP2 =    -0.28045515567331D+03
 E2 =    -0.9502586867D+00 EUMP2 =    -0.28045515567331D+03

 The electronic state is 1-A'.
 Alpha  occ. eigenvalues --  -20.72172 -20.68683 -20.66903 -15.82739  -1.63978
 Alpha  occ. eigenvalues --   -1.50306  -1.29460  -0.96162  -0.83295  -0.75717
 Alpha  occ. eigenvalues --   -0.73875  -0.63730  -0.61858  -0.61643  -0.50621
 Alpha  occ. eigenvalues --   -0.49805
 Alpha virt. eigenvalues --    0.03512   0.05765   0.09506   0.10033   0.11991
 Alpha virt. eigenvalues --    0.12252   0.14932   0.15202   0.17728   0.18040
 Alpha virt. eigenvalues --    0.18977   0.21101   0.21666   0.24173   0.24620

 Mulliken charges:
               1
     1  H    0.278605
     2  O   -0.273603
     3  O    0.039740
     4  N    0.154255
     5  O   -0.198997
 Sum of Mulliken charges =  -0.00000

 Dipole moment (field-independent basis, Debye):
    X=              0.0714    Y=             -1.0571    Z=              0.0000  Tot=              1.0595
 Quadrupole moment (field-independent basis, Debye-Ang):
   XX=            -23.3942   YY=            -22.9527   ZZ=            -21.9501
   XY=             -1.9929   XZ=              0.0000   YZ=              0.0000

  Exact polarizability:  30.988   4.197  30.039   0.000   0.000  17.643
 Approx polarizability:  24.615   0.502  27.882  -0.000  -0.000  15.553

                      1                      2                      3
                     A"                     A'                     A"
 Frequencies --    358.1429               398.0025               531.1419
 Red. masses --      1.5224                 7.0293                 3.0352
 Frc consts  --      0.1150                 0.6560                 0.5045
 IR Inten    --     64.4080                 8.1088                23.9583

                      4                      5                      6
                     A'                     A'                     A'
 Frequencies --    714.8469               836.8575               968.9363
 Red. masses --     13.1612                12.4480                 9.8522
 Frc consts  --      3.9625                 5.1363                 5.4497
 IR Inten    --    213.2422                34.3126                13.4233

                      7                      8                      9
                     A'                     A'                     A'
 Frequencies --   1427.2352              1529.2557              3486.4801
 Red. masses --      1.4534                 4.2758                 1.0638
 Frc consts  --      1.7444                 5.8915                 7.6186
 IR Inten    --     78.6051               142.5392                42.9310

 - Thermochemistry -
 -------------------
 Temperature   298.150 Kelvin.  Pressure   1.00000 Atm.
 Atom     1 has atomic number  1 and mass   1.00783

 Molecular mass:    62.99564 amu.
 Principal axes and moments of inertia in atomic units:
                           1         2         3
     Eigenvalues --    85.07216 222.94716 308.01932
           X            0.79406  -0.60785   0.00000
           Y            0.60785   0.79406   0.00000
           Z            0.00000   0.00000   1.00000
 This molecule is an asymmetric top.
 Rotational symmetry number  1.
 Rotational temperatures (Kelvin)      1.01812     0.38850     0.28120
 Rotational constants (GHZ):          21.21424     8.09493     5.85918
 Zero-point vibrational energy      61314.0 (Joules/Mol)
                                   14.65440 (Kcal/Mol)
 Warning -- explicit consideration of   3 degrees of freedom as
           vibrations may cause significant error
 Vibrational temperatures:    515.29   572.64   764.19  1028.51  1204.05
          (Kelvin)           1394.08  2053.47  2200.26  5016.27

 Zero-point correction=                           0.023353 (Hartree/Particle)
 Thermal correction to Energy=                    0.027279
 Thermal correction to Enthalpy=                  0.028224
 Thermal correction to Gibbs Free Energy=        -0.002617
 Sum of electronic and zero-point Energies=           -280.431802
 Sum of electronic and thermal Energies=              -280.427876
 Sum of electronic and thermal Enthalpies=            -280.426932
 Sum of electronic and thermal Free Energies=         -280.457773

                     E (Thermal)             CV                S
                      KCal/Mol        Cal/Mol-Kelvin    Cal/Mol-Kelvin
 Total                   17.118             12.145             64.910
 Electronic               0.000              0.000              0.000
 Translational            0.889              2.981             38.341
 Rotational               0.889              2.981             23.284
 Vibrational             15.341              6.184              3.286
 Vibration     1          0.733              1.559              1.130
 Vibration     2          0.764              1.474              0.970
 Vibration     3          0.886              1.181              0.585

                       ! Non-Optimized Parameters !

 1\1\GINC-N2228\Freq\RMP2-FC\Aug-CC-pVTZ\H1N1O3\CGAVINH\06-Mar-2022\1\\
 #p freq mp2/aug-cc-pvtz density=current\\title\\0,1\H\O,1,r1\O,2,r2,1,
 a1\N,3,r3,2,a2,1,d1,0\O,4,r4,3,a3,2,d2,0\\r1=0.98537664\r2=1.42673666\
 r3=1.38110764\r4=1.20319865\a1=100.6355057\a2=113.13777052\a3=114.3339
 2022\d1=0.\d2=0.\\Version=ES64L-G16RevB.01\State=1-A'\HF=-279.504897\M
 P2=-280.4551557\RMSD=4.993e-09\RMSF=3.734e-03\ZeroPoint=0.0233533\Ther
 mal=0.0272793\Dipole=-0.1149983,0.,-0.4006763\DipoleDeriv=0.3171175,0.
 ,0.0381436,0.,0.298023,0.,-0.0240503,0.,0.2005978,-0.5289304,0.,0.2843

 Normal termination of Gaussian 16 at Sun Mar  6 19:16:52 2022.
