 Gaussian 16, Revision B.01,
 Gaussian 16:  ES64L-G16RevB.01 20-Dec-2017

 ---------------------------------------
 #p freq mp2/aug-cc-pvtz density=current
 ---------------------------------------

 -----
 title
 -----
 Symbolic Z-matrix:
 Charge =  0 Multiplicity = 1

                         Standard orientation:
 ---------------------------------------------------------------------
 Center     Atomic      Atomic             Coordinates (Angstroms)
 Number     Number       Type             X           Y           Z
 ---------------------------------------------------------------------
      1          1           0        1.553008    1.680847    0.000000
      2          8           0        1.454245    0.716917    0.000000
      3          8           0       -0.000000    0.672616    0.000000
      4          7           0       -0.267159   -0.761496   -0.000000
      5          8           0       -1.414606   -0.933330   -0.000000
 ---------------------------------------------------------------------

 SCF Done:  E(RHF) =  -279.503297955     A.U. after   14 cycles
 E2 =    -0.9432652254D+00 EUMP2 =    -0.28044656318087D+03
 E2 =    -0.9432652254D+00 EUMP2 =    -0.28044656318087D+03

 The electronic state is 1-A'.
 Alpha  occ. eigenvalues --  -20.68840 -20.68474 -20.65863 -15.81130  -1.63273
 Alpha  occ. eigenvalues --   -1.49579  -1.25334  -0.94665  -0.77409  -0.76198
 Alpha  occ. eigenvalues --   -0.71409  -0.68057  -0.62248  -0.58872  -0.48432
 Alpha  occ. eigenvalues --   -0.47043
 Alpha virt. eigenvalues --    0.02991   0.07491   0.08576   0.10172   0.13376
 Alpha virt. eigenvalues --    0.13409   0.14431   0.15479   0.17845   0.19405
 Alpha virt. eigenvalues --    0.20020   0.20637   0.22116   0.23633   0.23746

 Mulliken charges:
               1
     1  H    0.249901
     2  O   -0.202445
     3  O   -0.149503
     4  N    0.292788
     5  O   -0.190742
 Sum of Mulliken charges =  -0.00000

 Dipole moment (field-independent basis, Debye):
    X=              0.4679    Y=              1.3141    Z=              0.0000  Tot=              1.3949
 Quadrupole moment (field-independent basis, Debye-Ang):
   XX=            -22.4128   YY=            -18.6158   ZZ=            -21.9929
   XY=              3.2919   XZ=             -0.0000   YZ=              0.0000

  Exact polarizability:  33.892   9.358  30.114   0.000  -0.000  17.908
 Approx polarizability:  28.781   5.023  23.432   0.000   0.000  15.477

 ******    1 imaginary frequencies (negative Signs) ******

                      1                      2                      3
                     A"                     A"                     A'
 Frequencies --   -267.8704               188.3342               332.1854
 Red. masses --      1.1531                 9.4418                 8.7419
 Frc consts  --      0.0488                 0.1973                 0.5683
 IR Inten    --    123.8569                 1.6248                 2.6454

                      4                      5                      6
                     A'                     A'                     A'
 Frequencies --    457.7292               784.5616               968.3728
 Red. masses --     12.1764                12.6803                15.4040
 Frc consts  --      1.5031                 4.5987                 8.5108
 IR Inten    --    200.6865               171.3115                21.2100

                      7                      8                      9
                     A'                     A'                     A'
 Frequencies --   1371.9566              1745.9171              3778.6030
 Red. masses --      1.1298                13.8677                 1.0675
 Frc consts  --      1.2529                24.9059                 8.9804
 IR Inten    --    148.1972               165.3857                81.7400

 - Thermochemistry -
 -------------------
 Temperature   298.150 Kelvin.  Pressure   1.00000 Atm.
 Atom     1 has atomic number  1 and mass   1.00783

 Molecular mass:    62.99564 amu.
 Principal axes and moments of inertia in atomic units:
                           1         2         3
     Eigenvalues --    32.79821 358.37610 391.17430
           X            0.81152  -0.58432   0.00000
           Y            0.58432   0.81152   0.00000
           Z           -0.00000   0.00000   1.00000
 This molecule is an asymmetric top.
 Rotational symmetry number  1.
 Rotational temperatures (Kelvin)      2.64081     0.24168     0.22142
 Rotational constants (GHZ):          55.02561     5.03589     4.61365
    1 imaginary frequencies ignored.
 Zero-point vibrational energy      57586.2 (Joules/Mol)
                                   13.76343 (Kcal/Mol)
 Warning -- explicit consideration of   3 degrees of freedom as
           vibrations may cause significant error
 Vibrational temperatures:    270.97   477.94   658.57  1128.81  1393.27
          (Kelvin)           1973.94  2511.99  5436.57

 Zero-point correction=                           0.021933 (Hartree/Particle)
 Thermal correction to Energy=                    0.026119
 Thermal correction to Enthalpy=                  0.027063
 Thermal correction to Gibbs Free Energy=        -0.004298
 Sum of electronic and zero-point Energies=           -280.424630
 Sum of electronic and thermal Energies=              -280.420445
 Sum of electronic and thermal Enthalpies=            -280.419500
 Sum of electronic and thermal Free Energies=         -280.450861

                     E (Thermal)             CV                S
                      KCal/Mol        Cal/Mol-Kelvin    Cal/Mol-Kelvin
 Total                   16.390             12.010             66.004
 Electronic               0.000              0.000              0.000
 Translational            0.889              2.981             38.341
 Rotational               0.889              2.981             23.046
 Vibrational             14.612              6.048              4.617
 Vibration     1          0.633              1.856              2.244
 Vibration     2          0.714              1.611              1.249
 Vibration     3          0.816              1.344              0.773

                       ! Non-Optimized Parameters !

 1\1\GINC-N2127\Freq\RMP2-FC\Aug-CC-pVTZ\H1N1O3\CGAVINH\21-Feb-2022\1\\
 #p freq mp2/aug-cc-pvtz density=current\\title\\0,1\H\O,1,r1\O,2,r2,1,
 a1\N,3,r3,2,a2,1,d1,0\O,4,r4,3,a3,2,d2,0\\r1=0.96897556\r2=1.45491931\
 r3=1.45878406\r4=1.16024167\a1=97.59494903\a2=102.29752444\a3=109.0695
 5123\d1=180.\d2=180.\\Version=ES64L-G16RevB.01\State=1-A'\HF=-279.5032
 98\MP2=-280.4465632\RMSD=3.516e-09\RMSF=6.045e-03\ZeroPoint=0.0219334\
 Thermal=0.0261186\Dipole=-0.1304426,0.,-0.5330744\DipoleDeriv=0.266334
 1,0.,0.0481238,0.,0.3552017,0.,0.0814474,0.,0.2743471,-0.3261198,0.,-0

 Normal termination of Gaussian 16 at Mon Feb 21 20:33:52 2022.
