 Gaussian 16, Revision B.01,
 Gaussian 16:  ES64L-G16RevB.01 20-Dec-2017

 ---------------------------------------
 #p freq mp2/aug-cc-pvtz density=current
 ---------------------------------------

 -----
 title
 -----
 Symbolic Z-matrix:
 Charge =  0 Multiplicity = 1

                         Standard orientation:
 ---------------------------------------------------------------------
 Center     Atomic      Atomic             Coordinates (Angstroms)
 Number     Number       Type             X           Y           Z
 ---------------------------------------------------------------------
      1          1           0        1.110268   -0.592918    0.000000
      2          8           0        1.315808    0.365256    0.000000
      3          8           0       -0.000000    0.916823    0.000000
      4          7           0       -0.991482   -0.044645    0.000000
      5          8           0       -0.587045   -1.168900    0.000000
 ---------------------------------------------------------------------

 SCF Done:  E(RHF) =  -279.506729758     A.U. after   14 cycles
 E2 =    -0.9484871162D+00 EUMP2 =    -0.28045521687427D+03
 E2 =    -0.9484871162D+00 EUMP2 =    -0.28045521687427D+03

 The electronic state is 1-A'.
 Alpha  occ. eigenvalues --  -20.71989 -20.68720 -20.66810 -15.82603  -1.64439
 Alpha  occ. eigenvalues --   -1.50562  -1.29477  -0.96069  -0.83496  -0.75899
 Alpha  occ. eigenvalues --   -0.74006  -0.63859  -0.61891  -0.61850  -0.50465
 Alpha  occ. eigenvalues --   -0.49774
 Alpha virt. eigenvalues --    0.03511   0.06028   0.09509   0.10040   0.11968
 Alpha virt. eigenvalues --    0.12259   0.14942   0.15208   0.17744   0.18032
 Alpha virt. eigenvalues --    0.18977   0.21108   0.21676   0.24236   0.24634

 Mulliken charges:
               1
     1  H    0.274691
     2  O   -0.270531
     3  O    0.037882
     4  N    0.153742
     5  O   -0.195785
 Sum of Mulliken charges =  -0.00000

 Dipole moment (field-independent basis, Debye):
    X=              0.0534    Y=             -1.0891    Z=              0.0000  Tot=              1.0904
 Quadrupole moment (field-independent basis, Debye-Ang):
   XX=            -23.3708   YY=            -22.9498   ZZ=            -21.9266
   XY=             -1.9693   XZ=              0.0000   YZ=              0.0000

  Exact polarizability:  30.888   4.143  29.818   0.000   0.000  17.606
 Approx polarizability:  24.533   0.510  27.614  -0.000  -0.000  15.507

                      1                      2                      3
                     A"                     A'                     A"
 Frequencies --    263.3351               395.6493               510.4332
 Red. masses --      1.3172                 6.9984                 4.4051
 Frc consts  --      0.0538                 0.6455                 0.6762
 IR Inten    --     74.7561                 7.8496                14.0747

                      4                      5                      6
                     A'                     A'                     A'
 Frequencies --    710.8961               837.1960               968.9673
 Red. masses --     13.2028                12.4545                 9.4046
 Frc consts  --      3.9312                 5.1432                 5.2024
 IR Inten    --    217.8547                30.8125                13.6303

                      7                      8                      9
                     A'                     A'                     A'
 Frequencies --   1424.4006              1568.9194              3556.5962
 Red. masses --      1.2920                 7.0007                 1.0639
 Frc consts  --      1.5445                10.1529                 7.9294
 IR Inten    --     78.6342               149.2869                42.0861

 - Thermochemistry -
 -------------------
 Temperature   298.150 Kelvin.  Pressure   1.00000 Atm.
 Atom     1 has atomic number  1 and mass   1.00783

 Molecular mass:    62.99564 amu.
 Principal axes and moments of inertia in atomic units:
                           1         2         3
     Eigenvalues --    84.49842 222.62417 307.12259
           X            0.79638  -0.60479   0.00000
           Y            0.60479   0.79638   0.00000
           Z            0.00000   0.00000   1.00000
 This molecule is an asymmetric top.
 Rotational symmetry number  1.
 Rotational temperatures (Kelvin)      1.02504     0.38906     0.28202
 Rotational constants (GHZ):          21.35828     8.10667     5.87629
 Zero-point vibrational energy      61227.2 (Joules/Mol)
                                   14.63366 (Kcal/Mol)
 Warning -- explicit consideration of   3 degrees of freedom as
           vibrations may cause significant error
 Vibrational temperatures:    378.88   569.25   734.40  1022.82  1204.54
          (Kelvin)           1394.13  2049.39  2257.33  5117.15

 Zero-point correction=                           0.023320 (Hartree/Particle)
 Thermal correction to Energy=                    0.027380
 Thermal correction to Enthalpy=                  0.028324
 Thermal correction to Gibbs Free Energy=        -0.002782
 Sum of electronic and zero-point Energies=           -280.431897
 Sum of electronic and thermal Energies=              -280.427837
 Sum of electronic and thermal Enthalpies=            -280.426893
 Sum of electronic and thermal Free Energies=         -280.457999

                     E (Thermal)             CV                S
                      KCal/Mol        Cal/Mol-Kelvin    Cal/Mol-Kelvin
 Total                   17.181             12.376             65.468
 Electronic               0.000              0.000              0.000
 Translational            0.889              2.981             38.341
 Rotational               0.889              2.981             23.273
 Vibrational             15.403              6.415              3.854
 Vibration     1          0.670              1.740              1.640
 Vibration     2          0.762              1.479              0.979
 Vibration     3          0.866              1.227              0.633

                       ! Non-Optimized Parameters !

 1\1\GINC-N2398\Freq\RMP2-FC\Aug-CC-pVTZ\H1N1O3\CGAVINH\06-Mar-2022\1\\
 #p freq mp2/aug-cc-pvtz density=current\\title\\0,1\H\O,1,r1\O,2,r2,1,
 a1\N,3,r3,2,a2,1,d1,0\O,4,r4,3,a3,2,d2,0\\r1=0.97997112\r2=1.42673666\
 r3=1.38110764\r4=1.19478846\a1=100.6355057\a2=113.13777052\a3=114.3339
 2022\d1=0.\d2=0.\\Version=ES64L-G16RevB.01\State=1-A'\HF=-279.5067298\
 MP2=-280.4552169\RMSD=4.348e-09\RMSF=1.664e-03\ZeroPoint=0.0233202\The
 rmal=0.0273795\Dipole=-0.1104129,0.,-0.4145334\DipoleDeriv=0.3148336,0
 .,0.0386456,0.,0.2989081,0.,-0.0217654,0.,0.1986571,-0.5278084,0.,0.28

 Normal termination of Gaussian 16 at Sun Mar  6 18:52:22 2022.
