 Gaussian 16, Revision B.01,
 Gaussian 16:  ES64L-G16RevB.01 20-Dec-2017

 ---------------------------------------
 #p freq mp2/aug-cc-pvtz density=current
 ---------------------------------------

 -----
 title
 -----
 Symbolic Z-matrix:
 Charge =  0 Multiplicity = 1

                         Standard orientation:
 ---------------------------------------------------------------------
 Center     Atomic      Atomic             Coordinates (Angstroms)
 Number     Number       Type             X           Y           Z
 ---------------------------------------------------------------------
      1          1           0        1.118328   -0.609027   -0.000000
      2          8           0        1.330013    0.353343    0.000000
      3          8           0        0.000000    0.919021    0.000000
      4          7           0       -0.996472   -0.037275   -0.000000
      5          8           0       -0.597891   -1.163620   -0.000000
 ---------------------------------------------------------------------

 SCF Done:  E(RHF) =  -279.505128354     A.U. after   14 cycles
 E2 =    -0.9499627828D+00 EUMP2 =    -0.28045509113635D+03
 E2 =    -0.9499627828D+00 EUMP2 =    -0.28045509113635D+03

 The electronic state is 1-A'.
 Alpha  occ. eigenvalues --  -20.71970 -20.68697 -20.67005 -15.82626  -1.64147
 Alpha  occ. eigenvalues --   -1.49892  -1.29613  -0.95938  -0.83137  -0.75764
 Alpha  occ. eigenvalues --   -0.73745  -0.64001  -0.61651  -0.61436  -0.50402
 Alpha  occ. eigenvalues --   -0.50058
 Alpha virt. eigenvalues --    0.03484   0.06035   0.09507   0.10013   0.11986
 Alpha virt. eigenvalues --    0.12216   0.14806   0.15083   0.17758   0.18061
 Alpha virt. eigenvalues --    0.18989   0.21090   0.21652   0.23394   0.24633

 Mulliken charges:
               1
     1  H    0.280911
     2  O   -0.276396
     3  O    0.032835
     4  N    0.157416
     5  O   -0.194766
 Sum of Mulliken charges =  -0.00000

 Dipole moment (field-independent basis, Debye):
    X=              0.0197    Y=             -1.1175    Z=             -0.0000  Tot=              1.1176
 Quadrupole moment (field-independent basis, Debye-Ang):
   XX=            -23.3797   YY=            -22.9102   ZZ=            -21.9580
   XY=             -2.0150   XZ=             -0.0000   YZ=             -0.0000

  Exact polarizability:  31.248   4.044  29.853   0.000   0.000  17.672
 Approx polarizability:  24.956   0.379  27.736   0.000   0.000  15.542

                      1                      2                      3
                     A"                     A'                     A"
 Frequencies --    353.0250               393.9955               521.7562
 Red. masses --      1.5418                 7.0858                 2.9650
 Frc consts  --      0.1132                 0.6481                 0.4756
 IR Inten    --     63.6523                 7.5187                25.1979

                      4                      5                      6
                     A'                     A'                     A'
 Frequencies --    705.5622               801.8086               951.9481
 Red. masses --     13.2635                13.3229                 9.1177
 Frc consts  --      3.8903                 5.0465                 4.8681
 IR Inten    --    208.7489                34.5467                13.6082

                      7                      8                      9
                     A'                     A'                     A'
 Frequencies --   1416.4028              1566.3970              3495.2542
 Red. masses --      1.2675                 7.5928                 1.0641
 Frc consts  --      1.4982                10.9763                 7.6591
 IR Inten    --     80.9843               148.3413                41.6936

 - Thermochemistry -
 -------------------
 Temperature   298.150 Kelvin.  Pressure   1.00000 Atm.
 Atom     1 has atomic number  1 and mass   1.00783

 Molecular mass:    62.99564 amu.
 Principal axes and moments of inertia in atomic units:
                           1         2         3
     Eigenvalues --    85.61815 224.02129 309.63944
           X            0.80606  -0.59184   0.00000
           Y            0.59184   0.80606   0.00000
           Z            0.00000  -0.00000   1.00000
 This molecule is an asymmetric top.
 Rotational symmetry number  1.
 Rotational temperatures (Kelvin)      1.01163     0.38663     0.27973
 Rotational constants (GHZ):          21.07896     8.05611     5.82852
 Zero-point vibrational energy      61046.3 (Joules/Mol)
                                   14.59042 (Kcal/Mol)
 Warning -- explicit consideration of   3 degrees of freedom as
           vibrations may cause significant error
 Vibrational temperatures:    507.92   566.87   750.69  1015.15  1153.62
          (Kelvin)           1369.64  2037.89  2253.70  5028.89

 Zero-point correction=                           0.023251 (Hartree/Particle)
 Thermal correction to Energy=                    0.027209
 Thermal correction to Enthalpy=                  0.028153
 Thermal correction to Gibbs Free Energy=        -0.002744
 Sum of electronic and zero-point Energies=           -280.431840
 Sum of electronic and thermal Energies=              -280.427882
 Sum of electronic and thermal Enthalpies=            -280.426938
 Sum of electronic and thermal Free Energies=         -280.457835

                     E (Thermal)             CV                S
                      KCal/Mol        Cal/Mol-Kelvin    Cal/Mol-Kelvin
 Total                   17.074             12.274             65.029
 Electronic               0.000              0.000              0.000
 Translational            0.889              2.981             38.341
 Rotational               0.889              2.981             23.300
 Vibrational             15.296              6.312              3.388
 Vibration     1          0.729              1.569              1.153
 Vibration     2          0.761              1.483              0.985
 Vibration     3          0.877              1.202              0.606

                       ! Non-Optimized Parameters !

 1\1\GINC-N2108\Freq\RMP2-FC\Aug-CC-pVTZ\H1N1O3\CGAVINH\06-Mar-2022\1\\
 #p freq mp2/aug-cc-pvtz density=current\\title\\0,1\H\O,1,r1\O,2,r2,1,
 a1\N,3,r3,2,a2,1,d1,0\O,4,r4,3,a3,2,d2,0\\r1=0.98537664\r2=1.44531152\
 r3=1.38110764\r4=1.19478846\a1=100.6355057\a2=113.13777052\a3=114.3339
 2022\d1=0.\d2=0.\\Version=ES64L-G16RevB.01\State=1-A'\HF=-279.5051284\
 MP2=-280.4550911\RMSD=4.778e-09\RMSF=2.759e-03\ZeroPoint=0.0232513\The
 rmal=0.0272089\Dipole=-0.1020071,0.,-0.4277194\DipoleDeriv=0.3167174,0
 .,0.0371933,0.,0.2989049,0.,-0.0185502,0.,0.1975455,-0.5318912,0.,0.26

 Normal termination of Gaussian 16 at Sun Mar  6 18:59:39 2022.
