 Gaussian 16, Revision B.01,
 Gaussian 16:  ES64L-G16RevB.01 20-Dec-2017

 ---------------------------------------
 #p freq mp2/aug-cc-pvtz density=current
 ---------------------------------------

 -----
 title
 -----
 Symbolic Z-matrix:
 Charge =  0 Multiplicity = 1

                         Standard orientation:
 ---------------------------------------------------------------------
 Center     Atomic      Atomic             Coordinates (Angstroms)
 Number     Number       Type             X           Y           Z
 ---------------------------------------------------------------------
      1          1           0        1.108117   -0.603072    0.000000
      2          8           0        1.315851    0.365688    0.000000
      3          8           0        0.000000    0.917154    0.000000
      4          7           0       -0.991408   -0.044391    0.000000
      5          8           0       -0.586883   -1.168615    0.000000
 ---------------------------------------------------------------------

 SCF Done:  E(RHF) =  -279.506081844     A.U. after   14 cycles
 E2 =    -0.9491361532D+00 EUMP2 =    -0.28045521799671D+03
 E2 =    -0.9491361532D+00 EUMP2 =    -0.28045521799671D+03

 The electronic state is 1-A'.
 Alpha  occ. eigenvalues --  -20.71972 -20.68732 -20.66846 -15.82602  -1.64420
 Alpha  occ. eigenvalues --   -1.50470  -1.29279  -0.96003  -0.83447  -0.75886
 Alpha  occ. eigenvalues --   -0.73989  -0.63614  -0.61859  -0.61827  -0.50476
 Alpha  occ. eigenvalues --   -0.49728
 Alpha virt. eigenvalues --    0.03503   0.06023   0.09515   0.10036   0.11976
 Alpha virt. eigenvalues --    0.12262   0.14923   0.15200   0.17762   0.18036
 Alpha virt. eigenvalues --    0.18980   0.21094   0.21665   0.24272   0.24637

 Mulliken charges:
               1
     1  H    0.280985
     2  O   -0.277714
     3  O    0.037916
     4  N    0.154371
     5  O   -0.195558
 Sum of Mulliken charges =  -0.00000

 Dipole moment (field-independent basis, Debye):
    X=              0.0501    Y=             -1.0989    Z=              0.0000  Tot=              1.1001
 Quadrupole moment (field-independent basis, Debye-Ang):
   XX=            -23.3865   YY=            -22.9343   ZZ=            -21.9401
   XY=             -1.9791   XZ=              0.0000   YZ=              0.0000

  Exact polarizability:  30.955   4.142  29.893   0.000   0.000  17.632
 Approx polarizability:  24.590   0.528  27.707  -0.000  -0.000  15.523

                      1                      2                      3
                     A'                     A"                     A"
 Frequencies --    398.5555               409.0069               545.7426
 Red. masses --      7.1127                 2.1977                 1.8843
 Frc consts  --      0.6657                 0.2166                 0.3307
 IR Inten    --      7.7138                43.4286                44.3615

                      4                      5                      6
                     A'                     A'                     A'
 Frequencies --    711.8748               836.5372               972.7215
 Red. masses --     13.4583                12.3079                10.0945
 Frc consts  --      4.0183                 5.0746                 5.6274
 IR Inten    --    216.5743                30.7070                11.9743

                      7                      8                      9
                     A'                     A'                     A'
 Frequencies --   1442.3873              1571.9817              3419.4962
 Red. masses --      1.3236                 5.8504                 1.0635
 Frc consts  --      1.6225                 8.5179                 7.3271
 IR Inten    --     81.0890               151.3761                43.4042

 - Thermochemistry -
 -------------------
 Temperature   298.150 Kelvin.  Pressure   1.00000 Atm.
 Atom     1 has atomic number  1 and mass   1.00783

 Molecular mass:    62.99564 amu.
 Principal axes and moments of inertia in atomic units:
                           1         2         3
     Eigenvalues --    84.55752 222.59290 307.15042
           X            0.79625  -0.60497   0.00000
           Y            0.60497   0.79625   0.00000
           Z            0.00000   0.00000   1.00000
 This molecule is an asymmetric top.
 Rotational symmetry number  1.
 Rotational temperatures (Kelvin)      1.02432     0.38911     0.28199
 Rotational constants (GHZ):          21.34335     8.10781     5.87576
 Zero-point vibrational energy      61657.3 (Joules/Mol)
                                   14.73646 (Kcal/Mol)
 Warning -- explicit consideration of   3 degrees of freedom as
           vibrations may cause significant error
 Vibrational temperatures:    573.43   588.47   785.20  1024.23  1203.59
          (Kelvin)           1399.53  2075.27  2261.73  4919.89

 Zero-point correction=                           0.023484 (Hartree/Particle)
 Thermal correction to Energy=                    0.027348
 Thermal correction to Enthalpy=                  0.028292
 Thermal correction to Gibbs Free Energy=        -0.002433
 Sum of electronic and zero-point Energies=           -280.431734
 Sum of electronic and thermal Energies=              -280.427870
 Sum of electronic and thermal Enthalpies=            -280.426926
 Sum of electronic and thermal Free Energies=         -280.457651

                     E (Thermal)             CV                S
                      KCal/Mol        Cal/Mol-Kelvin    Cal/Mol-Kelvin
 Total                   17.161             11.991             64.665
 Electronic               0.000              0.000              0.000
 Translational            0.889              2.981             38.341
 Rotational               0.889              2.981             23.273
 Vibrational             15.384              6.030              3.051
 Vibration     1          0.765              1.473              0.968
 Vibration     2          0.773              1.451              0.930
 Vibration     3          0.901              1.149              0.553

                       ! Non-Optimized Parameters !

 1\1\GINC-N2398\Freq\RMP2-FC\Aug-CC-pVTZ\H1N1O3\CGAVINH\06-Mar-2022\1\\
 #p freq mp2/aug-cc-pvtz density=current\\title\\0,1\H\O,1,r1\O,2,r2,1,
 a1\N,3,r3,2,a2,1,d1,0\O,4,r4,3,a3,2,d2,0\\r1=0.99078216\r2=1.42673666\
 r3=1.38110764\r4=1.19478846\a1=100.6355057\a2=113.13777052\a3=114.3339
 2022\d1=0.\d2=0.\\Version=ES64L-G16RevB.01\State=1-A'\HF=-279.5060818\
 MP2=-280.455218\RMSD=4.500e-09\RMSF=1.566e-03\ZeroPoint=0.023484\Therm
 al=0.0273477\Dipole=-0.1099133,0.,-0.4186173\DipoleDeriv=0.3189927,0.,
 0.0370949,0.,0.2972304,0.,-0.0271493,0.,0.2011307,-0.5287127,0.,0.2814

 Normal termination of Gaussian 16 at Sun Mar  6 18:47:52 2022.
