 Gaussian 16, Revision B.01,
 Gaussian 16:  ES64L-G16RevB.01 20-Dec-2017

 ---------------------------------------
 #p freq mp2/aug-cc-pvtz density=current
 ---------------------------------------

 -----
 title
 -----
 Symbolic Z-matrix:
 Charge =  0 Multiplicity = 1

                         Standard orientation:
 ---------------------------------------------------------------------
 Center     Atomic      Atomic             Coordinates (Angstroms)
 Number     Number       Type             X           Y           Z
 ---------------------------------------------------------------------
      1          1           0        1.107331   -0.606789    0.000000
      2          8           0        1.315866    0.365846    0.000000
      3          8           0        0.000000    0.917275    0.000000
      4          7           0       -0.991381   -0.044298    0.000000
      5          8           0       -0.586825   -1.168511    0.000000
 ---------------------------------------------------------------------

 SCF Done:  E(RHF) =  -279.505799343     A.U. after   14 cycles
 E2 =    -0.9493745197D+00 EUMP2 =    -0.28045517386281D+03
 E2 =    -0.9493745197D+00 EUMP2 =    -0.28045517386281D+03

 The electronic state is 1-A'.
 Alpha  occ. eigenvalues --  -20.71967 -20.68737 -20.66858 -15.82602  -1.64414
 Alpha  occ. eigenvalues --   -1.50437  -1.29208  -0.95979  -0.83429  -0.75881
 Alpha  occ. eigenvalues --   -0.73982  -0.63524  -0.61847  -0.61818  -0.50481
 Alpha  occ. eigenvalues --   -0.49712
 Alpha virt. eigenvalues --    0.03500   0.06021   0.09517   0.10035   0.11979
 Alpha virt. eigenvalues --    0.12263   0.14916   0.15197   0.17768   0.18038
 Alpha virt. eigenvalues --    0.18981   0.21089   0.21661   0.24285   0.24638

 Mulliken charges:
               1
     1  H    0.283126
     2  O   -0.280197
     3  O    0.037933
     4  N    0.154608
     5  O   -0.195470
 Sum of Mulliken charges =  -0.00000

 Dipole moment (field-independent basis, Debye):
    X=              0.0488    Y=             -1.1026    Z=              0.0000  Tot=              1.1037
 Quadrupole moment (field-independent basis, Debye-Ang):
   XX=            -23.3922   YY=            -22.9285   ZZ=            -21.9450
   XY=             -1.9827   XZ=              0.0000   YZ=              0.0000

  Exact polarizability:  30.980   4.141  29.921   0.000   0.000  17.641
 Approx polarizability:  24.611   0.535  27.741  -0.000  -0.000  15.529

                      1                      2                      3
                     A'                     A"                     A"
 Frequencies --    399.4409               433.4419               568.7944
 Red. masses --      7.1444                 3.1653                 1.4934
 Frc consts  --      0.6716                 0.3504                 0.2847
 IR Inten    --      7.6825                28.7339                58.6803

                      4                      5                      6
                     A'                     A'                     A'
 Frequencies --    712.1619               836.2713               973.8347
 Red. masses --     13.5381                12.2600                10.3206
 Frc consts  --      4.0454                 5.0517                 5.7667
 IR Inten    --    216.1132                30.6354                11.4612

                      7                      8                      9
                     A'                     A'                     A'
 Frequencies --   1447.9243              1573.2064              3370.3103
 Red. masses --      1.3394                 5.4780                 1.0634
 Frc consts  --      1.6544                 7.9881                 7.1167
 IR Inten    --     81.8095               152.2403                43.8985

 - Thermochemistry -
 -------------------
 Temperature   298.150 Kelvin.  Pressure   1.00000 Atm.
 Atom     1 has atomic number  1 and mass   1.00783

 Molecular mass:    62.99564 amu.
 Principal axes and moments of inertia in atomic units:
                           1         2         3
     Eigenvalues --    84.57924 222.58157 307.16081
           X            0.79619  -0.60504   0.00000
           Y            0.60504   0.79619   0.00000
           Z            0.00000   0.00000   1.00000
 This molecule is an asymmetric top.
 Rotational symmetry number  1.
 Rotational temperatures (Kelvin)      1.02406     0.38913     0.28198
 Rotational constants (GHZ):          21.33787     8.10822     5.87556
 Zero-point vibrational energy      61699.7 (Joules/Mol)
                                   14.74658 (Kcal/Mol)
 Warning -- explicit consideration of   3 degrees of freedom as
           vibrations may cause significant error
 Vibrational temperatures:    574.71   623.63   818.37  1024.64  1203.21
          (Kelvin)           1401.13  2083.24  2263.49  4849.12

 Zero-point correction=                           0.023500 (Hartree/Particle)
 Thermal correction to Energy=                    0.027326
 Thermal correction to Enthalpy=                  0.028270
 Thermal correction to Gibbs Free Energy=        -0.002391
 Sum of electronic and zero-point Energies=           -280.431674
 Sum of electronic and thermal Energies=              -280.427848
 Sum of electronic and thermal Enthalpies=            -280.426904
 Sum of electronic and thermal Free Energies=         -280.457565

                     E (Thermal)             CV                S
                      KCal/Mol        Cal/Mol-Kelvin    Cal/Mol-Kelvin
 Total                   17.147             11.882             64.532
 Electronic               0.000              0.000              0.000
 Translational            0.889              2.981             38.341
 Rotational               0.889              2.981             23.274
 Vibrational             15.370              5.921              2.918
 Vibration     1          0.765              1.471              0.965
 Vibration     2          0.794              1.397              0.847
 Vibration     3          0.925              1.099              0.507

                       ! Non-Optimized Parameters !

 1\1\GINC-N2199\Freq\RMP2-FC\Aug-CC-pVTZ\H1N1O3\CGAVINH\06-Mar-2022\1\\
 #p freq mp2/aug-cc-pvtz density=current\\title\\0,1\H\O,1,r1\O,2,r2,1,
 a1\N,3,r3,2,a2,1,d1,0\O,4,r4,3,a3,2,d2,0\\r1=0.99473927\r2=1.42673666\
 r3=1.38110764\r4=1.19478846\a1=100.6355057\a2=113.13777052\a3=114.3339
 2022\d1=0.\d2=0.\\Version=ES64L-G16RevB.01\State=1-A'\HF=-279.5057993\
 MP2=-280.4551739\RMSD=4.555e-09\RMSF=2.671e-03\ZeroPoint=0.0235002\The
 rmal=0.0273257\Dipole=-0.1097029,0.,-0.4201247\DipoleDeriv=0.3205183,0
 .,0.0365153,0.,0.2966217,0.,-0.0291286,0.,0.202026,-0.5290455,0.,0.281

 Normal termination of Gaussian 16 at Sun Mar  6 18:50:33 2022.
