 Gaussian 16, Revision B.01,
 Gaussian 16:  ES64L-G16RevB.01 20-Dec-2017

 ---------------------------------------
 #p freq mp2/aug-cc-pvtz density=current
 ---------------------------------------

 -----
 title
 -----
 Symbolic Z-matrix:
 Charge =  0 Multiplicity = 1

                         Standard orientation:
 ---------------------------------------------------------------------
 Center     Atomic      Atomic             Coordinates (Angstroms)
 Number     Number       Type             X           Y           Z
 ---------------------------------------------------------------------
      1          1           0        1.523722    1.698159   -0.000000
      2          8           0        1.435850    0.733176   -0.000000
      3          8           0        0.000000    0.673200    0.000000
      4          7           0       -0.250948   -0.763838   -0.000000
      5          8           0       -1.406735   -0.950288    0.000000
 ---------------------------------------------------------------------

 SCF Done:  E(RHF) =  -279.502975286     A.U. after   14 cycles
 E2 =    -0.9436026622D+00 EUMP2 =    -0.28044657794796D+03
 E2 =    -0.9436026622D+00 EUMP2 =    -0.28044657794796D+03

 The electronic state is 1-A'.
 Alpha  occ. eigenvalues --  -20.68986 -20.68397 -20.65844 -15.81246  -1.62464
 Alpha  occ. eigenvalues --   -1.50297  -1.25120  -0.94832  -0.77475  -0.76066
 Alpha  occ. eigenvalues --   -0.71350  -0.67946  -0.62216  -0.59176  -0.48196
 Alpha  occ. eigenvalues --   -0.47207
 Alpha virt. eigenvalues --    0.02965   0.07170   0.08635   0.10178   0.13394
 Alpha virt. eigenvalues --    0.13471   0.14417   0.15461   0.17821   0.19401
 Alpha virt. eigenvalues --    0.19974   0.20651   0.22231   0.23753   0.24378

 Mulliken charges:
               1
     1  H    0.249253
     2  O   -0.199554
     3  O   -0.146004
     4  N    0.290152
     5  O   -0.193847
 Sum of Mulliken charges =  -0.00000

 Dipole moment (field-independent basis, Debye):
    X=              0.5049    Y=              1.3771    Z=              0.0000  Tot=              1.4667
 Quadrupole moment (field-independent basis, Debye-Ang):
   XX=            -22.5667   YY=            -18.5510   ZZ=            -21.9853
   XY=              3.1982   XZ=              0.0000   YZ=             -0.0000

  Exact polarizability:  33.562   9.439  30.325  -0.000   0.000  17.869
 Approx polarizability:  28.498   5.116  23.561  -0.000   0.000  15.493

 ******    1 imaginary frequencies (negative Signs) ******

                      1                      2                      3
                     A"                     A"                     A'
 Frequencies --   -262.9921               221.9613               337.5015
 Red. masses --      1.1357                10.8176                 8.5132
 Frc consts  --      0.0463                 0.3140                 0.5713
 IR Inten    --    125.3820                 0.6040                 7.8055

                      4                      5                      6
                     A'                     A'                     A'
 Frequencies --    457.0799               794.7711              1006.2055
 Red. masses --     12.4516                12.7761                15.7407
 Frc consts  --      1.5327                 4.7548                 9.3896
 IR Inten    --    199.0710               174.9526                15.8939

                      7                      8                      9
                     A'                     A'                     A'
 Frequencies --   1391.2937              1678.2937              3776.9377
 Red. masses --      1.1352                12.9857                 1.0674
 Frc consts  --      1.2946                21.5503                 8.9715
 IR Inten    --    155.0565               139.1106                83.3482

 - Thermochemistry -
 -------------------
 Temperature   298.150 Kelvin.  Pressure   1.00000 Atm.
 Atom     1 has atomic number  1 and mass   1.00783

 Molecular mass:    62.99564 amu.
 Principal axes and moments of inertia in atomic units:
                           1         2         3
     Eigenvalues --    32.57892 357.15293 389.73186
           X            0.80358  -0.59520   0.00000
           Y            0.59520   0.80358   0.00000
           Z           -0.00000   0.00000   1.00000
 This molecule is an asymmetric top.
 Rotational symmetry number  1.
 Rotational temperatures (Kelvin)      2.65859     0.24251     0.22224
 Rotational constants (GHZ):          55.39598     5.05313     4.63073
    1 imaginary frequencies ignored.
 Zero-point vibrational energy      57803.8 (Joules/Mol)
                                   13.81544 (Kcal/Mol)
 Warning -- explicit consideration of   3 degrees of freedom as
           vibrations may cause significant error
 Vibrational temperatures:    319.35   485.59   657.64  1143.50  1447.71
          (Kelvin)           2001.76  2414.69  5434.17

 Zero-point correction=                           0.022016 (Hartree/Particle)
 Thermal correction to Energy=                    0.026135
 Thermal correction to Enthalpy=                  0.027079
 Thermal correction to Gibbs Free Energy=        -0.004109
 Sum of electronic and zero-point Energies=           -280.424562
 Sum of electronic and thermal Energies=              -280.420443
 Sum of electronic and thermal Enthalpies=            -280.419499
 Sum of electronic and thermal Free Energies=         -280.450687

                     E (Thermal)             CV                S
                      KCal/Mol        Cal/Mol-Kelvin    Cal/Mol-Kelvin
 Total                   16.400             11.894             65.641
 Electronic               0.000              0.000              0.000
 Translational            0.889              2.981             38.341
 Rotational               0.889              2.981             23.032
 Vibrational             14.623              5.932              4.269
 Vibration     1          0.648              1.808              1.943
 Vibration     2          0.718              1.601              1.224
 Vibration     3          0.815              1.345              0.775

                       ! Non-Optimized Parameters !

 1\1\GINC-N2127\Freq\RMP2-FC\Aug-CC-pVTZ\H1N1O3\CGAVINH\21-Feb-2022\1\\
 #p freq mp2/aug-cc-pvtz density=current\\title\\0,1\H\O,1,r1\O,2,r2,1,
 a1\N,3,r3,2,a2,1,d1,0\O,4,r4,3,a3,2,d2,0\\r1=0.96897556\r2=1.43710165\
 r3=1.45878406\r4=1.17072885\a1=97.59494903\a2=102.29752444\a3=109.0695
 5123\d1=180.\d2=180.\\Version=ES64L-G16RevB.01\State=1-A'\HF=-279.5029
 753\MP2=-280.4465779\RMSD=3.630e-09\RMSF=3.250e-03\ZeroPoint=0.0220163
 \Thermal=0.0261351\Dipole=-0.1486805,0.,-0.5575717\DipoleDeriv=0.26702
 15,0.,0.0493148,0.,0.3563247,0.,0.0793179,0.,0.277788,-0.3297019,0.,-0

 Normal termination of Gaussian 16 at Mon Feb 21 20:16:03 2022.
