 Gaussian 16, Revision B.01,
 Gaussian 16:  ES64L-G16RevB.01 20-Dec-2017

 ---------------------------------------
 #p freq mp2/aug-cc-pvtz density=current
 ---------------------------------------

 -----
 title
 -----
 Symbolic Z-matrix:
 Charge =  0 Multiplicity = 1

                         Standard orientation:
 ---------------------------------------------------------------------
 Center     Atomic      Atomic             Coordinates (Angstroms)
 Number     Number       Type             X           Y           Z
 ---------------------------------------------------------------------
      1          1           0        1.134389   -0.586855    0.000000
      2          8           0        1.324874    0.379935    0.000000
      3          8           0       -0.000000    0.909355    0.000000
      4          7           0       -0.995446   -0.048009    0.000000
      5          8           0       -0.595657   -1.173925    0.000000
 ---------------------------------------------------------------------

 SCF Done:  E(RHF) =  -279.506552506     A.U. after   14 cycles
 E2 =    -0.9485830339D+00 EUMP2 =    -0.28045513554030D+03
 E2 =    -0.9485830339D+00 EUMP2 =    -0.28045513554030D+03

 The electronic state is 1-A'.
 Alpha  occ. eigenvalues --  -20.71834 -20.68656 -20.66987 -15.82606  -1.64265
 Alpha  occ. eigenvalues --   -1.50530  -1.29384  -0.96015  -0.83243  -0.75831
 Alpha  occ. eigenvalues --   -0.73905  -0.63922  -0.61880  -0.61745  -0.50392
 Alpha  occ. eigenvalues --   -0.49713
 Alpha virt. eigenvalues --    0.03483   0.06077   0.09517   0.10081   0.11973
 Alpha virt. eigenvalues --    0.12246   0.14872   0.15143   0.17763   0.18065
 Alpha virt. eigenvalues --    0.18993   0.21105   0.21668   0.24094   0.24650

 Mulliken charges:
               1
     1  H    0.280959
     2  O   -0.272596
     3  O    0.038211
     4  N    0.151833
     5  O   -0.198407
 Sum of Mulliken charges =  -0.00000

 Dipole moment (field-independent basis, Debye):
    X=              0.0896    Y=             -1.1051    Z=              0.0000  Tot=              1.1088
 Quadrupole moment (field-independent basis, Debye-Ang):
   XX=            -23.2803   YY=            -23.0242   ZZ=            -21.9374
   XY=             -2.0007   XZ=              0.0000   YZ=              0.0000

  Exact polarizability:  31.154   4.260  29.940   0.000   0.000  17.642
 Approx polarizability:  24.707   0.626  27.648  -0.000  -0.000  15.528

                      1                      2                      3
                     A"                     A'                     A"
 Frequencies --    354.2792               372.3287               518.0676
 Red. masses --      1.5475                 7.0055                 2.9560
 Frc consts  --      0.1144                 0.5722                 0.4674
 IR Inten    --     63.5837                 7.7219                25.7523

                      4                      5                      6
                     A'                     A'                     A'
 Frequencies --    713.3150               835.2152               971.2290
 Red. masses --     13.2282                12.2166                 9.5716
 Frc consts  --      3.9656                 5.0211                 5.3196
 IR Inten    --    220.9278                28.4982                12.9959

                      7                      8                      9
                     A'                     A'                     A'
 Frequencies --   1430.8199              1566.0893              3495.7265
 Red. masses --      1.2867                 7.1491                 1.0640
 Frc consts  --      1.5520                10.3308                 7.6603
 IR Inten    --     78.0178               153.0594                38.9646

 - Thermochemistry -
 -------------------
 Temperature   298.150 Kelvin.  Pressure   1.00000 Atm.
 Atom     1 has atomic number  1 and mass   1.00783

 Molecular mass:    62.99564 amu.
 Principal axes and moments of inertia in atomic units:
                           1         2         3
     Eigenvalues --    83.63175 226.53428 310.16603
           X            0.79802  -0.60263   0.00000
           Y            0.60263   0.79802   0.00000
           Z            0.00000   0.00000   1.00000
 This molecule is an asymmetric top.
 Rotational symmetry number  1.
 Rotational temperatures (Kelvin)      1.03566     0.38234     0.27925
 Rotational constants (GHZ):          21.57962     7.96675     5.81863
 Zero-point vibrational energy      61350.9 (Joules/Mol)
                                   14.66322 (Kcal/Mol)
 Warning -- explicit consideration of   3 degrees of freedom as
           vibrations may cause significant error
 Vibrational temperatures:    509.73   535.70   745.38  1026.30  1201.69
          (Kelvin)           1397.38  2058.63  2253.25  5029.57

 Zero-point correction=                           0.023367 (Hartree/Particle)
 Thermal correction to Energy=                    0.027332
 Thermal correction to Enthalpy=                  0.028277
 Thermal correction to Gibbs Free Energy=        -0.002637
 Sum of electronic and zero-point Energies=           -280.431768
 Sum of electronic and thermal Energies=              -280.427803
 Sum of electronic and thermal Enthalpies=            -280.426859
 Sum of electronic and thermal Free Energies=         -280.457772

                     E (Thermal)             CV                S
                      KCal/Mol        Cal/Mol-Kelvin    Cal/Mol-Kelvin
 Total                   17.151             12.230             65.063
 Electronic               0.000              0.000              0.000
 Translational            0.889              2.981             38.341
 Rotational               0.889              2.981             23.290
 Vibrational             15.374              6.268              3.433
 Vibration     1          0.730              1.566              1.147
 Vibration     2          0.744              1.529              1.070
 Vibration     3          0.873              1.210              0.614

                       ! Non-Optimized Parameters !

 1\1\GINC-N2218\Freq\RMP2-FC\Aug-CC-pVTZ\H1N1O3\CGAVINH\06-Mar-2022\1\\
 #p freq mp2/aug-cc-pvtz density=current\\title\\0,1\H\O,1,r1\O,2,r2,1,
 a1\N,3,r3,2,a2,1,d1,0\O,4,r4,3,a3,2,d2,0\\r1=0.98537664\r2=1.42673666\
 r3=1.38110764\r4=1.19478846\a1=100.6355057\a2=114.33554353\a3=114.3339
 2022\d1=0.\d2=0.\\Version=ES64L-G16RevB.01\State=1-A'\HF=-279.5065525\
 MP2=-280.4551355\RMSD=4.083e-09\RMSF=1.907e-03\ZeroPoint=0.0233673\The
 rmal=0.0273325\Dipole=-0.1186356,0.,-0.4197801\DipoleDeriv=0.3136805,0
 .,0.0422865,0.,0.3000546,0.,-0.0167224,0.,0.1911579,-0.5388322,0.,0.27

 Normal termination of Gaussian 16 at Sun Mar  6 19:34:34 2022.
