 Gaussian 16, Revision B.01,
 Gaussian 16:  ES64L-G16RevB.01 20-Dec-2017

 ---------------------------------------
 #p freq mp2/aug-cc-pvtz density=current
 ---------------------------------------

 -----
 title
 -----
 Symbolic Z-matrix:
 Charge =  0 Multiplicity = 1

                         Standard orientation:
 ---------------------------------------------------------------------
 Center     Atomic      Atomic             Coordinates (Angstroms)
 Number     Number       Type             X           Y           Z
 ---------------------------------------------------------------------
      1          1           0        1.097545   -0.613195    0.000000
      2          8           0        1.311563    0.348660    0.000000
      3          8           0        0.000000    0.910248    0.000000
      4          7           0       -0.983790   -0.029307    0.000000
      5          8           0       -0.587940   -1.156614    0.000000
 ---------------------------------------------------------------------

 SCF Done:  E(RHF) =  -279.508006830     A.U. after   14 cycles
 E2 =    -0.9470731017D+00 EUMP2 =    -0.28045507993141D+03
 E2 =    -0.9470731017D+00 EUMP2 =    -0.28045507993141D+03

 The electronic state is 1-A'.
 Alpha  occ. eigenvalues --  -20.72328 -20.68237 -20.66943 -15.82347  -1.64980
 Alpha  occ. eigenvalues --   -1.50509  -1.30128  -0.95932  -0.83691  -0.76163
 Alpha  occ. eigenvalues --   -0.74485  -0.63821  -0.61798  -0.61643  -0.50480
 Alpha  occ. eigenvalues --   -0.49953
 Alpha virt. eigenvalues --    0.03497   0.06338   0.09514   0.10048   0.11971
 Alpha virt. eigenvalues --    0.12303   0.14870   0.15163   0.17741   0.18066
 Alpha virt. eigenvalues --    0.18963   0.21120   0.21662   0.24268   0.24645

 Mulliken charges:
               1
     1  H    0.278059
     2  O   -0.277193
     3  O    0.054211
     4  N    0.146959
     5  O   -0.202035
 Sum of Mulliken charges =  -0.00000

 Dipole moment (field-independent basis, Debye):
    X=              0.1004    Y=             -0.9996    Z=              0.0000  Tot=              1.0046
 Quadrupole moment (field-independent basis, Debye-Ang):
   XX=            -23.4499   YY=            -22.8959   ZZ=            -21.8993
   XY=             -2.0176   XZ=              0.0000   YZ=              0.0000

  Exact polarizability:  30.813   3.987  29.550   0.000   0.000  17.551
 Approx polarizability:  24.401   0.427  27.344  -0.000  -0.000  15.479

                      1                      2                      3
                     A"                     A'                     A"
 Frequencies --    362.3606               413.7388               527.9638
 Red. masses --      1.6175                 6.9227                 2.7193
 Frc consts  --      0.1251                 0.6982                 0.4466
 IR Inten    --     61.2256                 7.3925                27.4310

                      4                      5                      6
                     A'                     A'                     A'
 Frequencies --    787.8049               838.4707               976.7524
 Red. masses --     13.1082                12.8111                 9.5029
 Frc consts  --      4.7933                 5.3066                 5.3416
 IR Inten    --    188.1276                41.0878                15.2977

                      7                      8                      9
                     A'                     A'                     A'
 Frequencies --   1431.9266              1581.3701              3485.0255
 Red. masses --      1.2945                 6.9011                 1.0635
 Frc consts  --      1.5638                10.1680                 7.6100
 IR Inten    --     81.6025               150.6491                46.4945

 - Thermochemistry -
 -------------------
 Temperature   298.150 Kelvin.  Pressure   1.00000 Atm.
 Atom     1 has atomic number  1 and mass   1.00783

 Molecular mass:    62.99564 amu.
 Principal axes and moments of inertia in atomic units:
                           1         2         3
     Eigenvalues --    84.49416 218.22705 302.72121
           X            0.80272  -0.59636   0.00000
           Y            0.59636   0.80272   0.00000
           Z            0.00000   0.00000   1.00000
 This molecule is an asymmetric top.
 Rotational symmetry number  1.
 Rotational temperatures (Kelvin)      1.02509     0.39690     0.28612
 Rotational constants (GHZ):          21.35936     8.27002     5.96173
 Zero-point vibrational energy      62238.2 (Joules/Mol)
                                   14.87529 (Kcal/Mol)
 Warning -- explicit consideration of   3 degrees of freedom as
           vibrations may cause significant error
 Vibrational temperatures:    521.36   595.28   759.62  1133.48  1206.37
          (Kelvin)           1405.33  2060.22  2275.24  5014.17

 Zero-point correction=                           0.023705 (Hartree/Particle)
 Thermal correction to Energy=                    0.027586
 Thermal correction to Enthalpy=                  0.028531
 Thermal correction to Gibbs Free Energy=        -0.002219
 Sum of electronic and zero-point Energies=           -280.431375
 Sum of electronic and thermal Energies=              -280.427494
 Sum of electronic and thermal Enthalpies=            -280.426549
 Sum of electronic and thermal Free Energies=         -280.457299

                     E (Thermal)             CV                S
                      KCal/Mol        Cal/Mol-Kelvin    Cal/Mol-Kelvin
 Total                   17.311             11.955             64.719
 Electronic               0.000              0.000              0.000
 Translational            0.889              2.981             38.341
 Rotational               0.889              2.981             23.239
 Vibrational             15.533              5.993              3.140
 Vibration     1          0.736              1.550              1.112
 Vibration     2          0.777              1.440              0.914
 Vibration     3          0.883              1.188              0.592

                       ! Non-Optimized Parameters !

 1\1\GINC-N2108\Freq\RMP2-FC\Aug-CC-pVTZ\H1N1O3\CGAVINH\06-Mar-2022\1\\
 #p freq mp2/aug-cc-pvtz density=current\\title\\0,1\H\O,1,r1\O,2,r2,1,
 a1\N,3,r3,2,a2,1,d1,0\O,4,r4,3,a3,2,d2,0\\r1=0.98537664\r2=1.42673666\
 r3=1.36036964\r4=1.19478846\a1=100.6355057\a2=113.13777052\a3=114.3339
 2022\d1=0.\d2=0.\\Version=ES64L-G16RevB.01\State=1-A'\HF=-279.5080068\
 MP2=-280.4550799\RMSD=3.863e-09\RMSF=2.938e-03\ZeroPoint=0.0237053\The
 rmal=0.0275864\Dipole=-0.1239811,0.,-0.3752882\DipoleDeriv=0.3220368,0
 .,0.0361694,0.,0.2983183,0.,-0.0271879,0.,0.2086651,-0.5357221,0.,0.28

 Normal termination of Gaussian 16 at Sun Mar  6 19:13:06 2022.
