 Gaussian 16, Revision B.01,
 Gaussian 16:  ES64L-G16RevB.01 20-Dec-2017

 ---------------------------------------
 #p freq mp2/aug-cc-pvtz density=current
 ---------------------------------------

 -----
 title
 -----
 Symbolic Z-matrix:
 Charge =  0 Multiplicity = 1

                         Standard orientation:
 ---------------------------------------------------------------------
 Center     Atomic      Atomic             Coordinates (Angstroms)
 Number     Number       Type             X           Y           Z
 ---------------------------------------------------------------------
      1          1           0        0.547565   -1.135568    0.110281
      2          8           0        1.276682   -0.484214   -0.012575
      3          8           0        0.542481    0.739007    0.003411
      4          7           0       -0.825736    0.550755    0.004286
      5          8           0       -1.165089   -0.594758   -0.008371
 ---------------------------------------------------------------------

 SCF Done:  E(RHF) =  -279.506336951     A.U. after   16 cycles
 E2 =    -0.9487252896D+00 EUMP2 =    -0.28045506224074D+03
 E2 =    -0.9487252896D+00 EUMP2 =    -0.28045506224074D+03

 The electronic state is 1-A.
 Alpha  occ. eigenvalues --  -20.71966 -20.68684 -20.66856 -15.82566  -1.64390
 Alpha  occ. eigenvalues --   -1.50507  -1.29369  -0.96014  -0.83386  -0.75868
 Alpha  occ. eigenvalues --   -0.74012  -0.63847  -0.61928  -0.61629  -0.50444
 Alpha  occ. eigenvalues --   -0.49764
 Alpha virt. eigenvalues --    0.03495   0.06052   0.09512   0.10042   0.11895
 Alpha virt. eigenvalues --    0.12266   0.14999   0.15185   0.17661   0.18126
 Alpha virt. eigenvalues --    0.18901   0.21200   0.21694   0.24225   0.24622

 Mulliken charges:
               1
     1  H    0.278648
     2  O   -0.273493
     3  O    0.036761
     4  N    0.154707
     5  O   -0.196623
 Sum of Mulliken charges =  -0.00000

 Dipole moment (field-independent basis, Debye):
    X=             -0.5920    Y=             -0.9132    Z=              0.1755  Tot=              1.1024
 Quadrupole moment (field-independent basis, Debye-Ang):
   XX=            -25.1052   YY=            -21.2291   ZZ=            -21.9009
   XY=             -0.4014   XZ=              0.0831   YZ=             -0.3135

  Exact polarizability:  34.464   0.731  26.284   0.011  -0.067  17.642
 Approx polarizability:  26.104   1.630  26.084  -0.092  -0.059  15.546

                      1                      2                      3
                      A                      A                      A
 Frequencies --    328.2379               401.7919               516.5423
 Red. masses --      1.4903                 6.4465                 3.3962
 Frc consts  --      0.0946                 0.6132                 0.5339
 IR Inten    --     64.3267                 9.7914                20.7566

                      4                      5                      6
                      A                      A                      A
 Frequencies --    711.6694               837.1763               970.9717
 Red. masses --     12.5145                12.3782                 9.8364
 Frc consts  --      3.7344                 5.1114                 5.4638
 IR Inten    --    218.1551                31.9665                12.6649

                      7                      8                      9
                      A                      A                      A
 Frequencies --   1438.0448              1569.4031              3490.6233
 Red. masses --      1.2996                 6.4535                 1.0638
 Frc consts  --      1.5834                 9.3652                 7.6372
 IR Inten    --     79.1839               149.1779                40.9697

 - Thermochemistry -
 -------------------
 Temperature   298.150 Kelvin.  Pressure   1.00000 Atm.
 Atom     1 has atomic number  1 and mass   1.00783

 Molecular mass:    62.99564 amu.
 Principal axes and moments of inertia in atomic units:
                           1         2         3
     Eigenvalues --    84.55035 222.69245 307.13265
           X            0.99987  -0.01610   0.00103
           Y            0.01610   0.99986  -0.00536
           Z           -0.00094   0.00538   0.99999
 This molecule is an asymmetric top.
 Rotational symmetry number  1.
 Rotational temperatures (Kelvin)      1.02441     0.38894     0.28201
 Rotational constants (GHZ):          21.34516     8.10419     5.87610
 Zero-point vibrational energy      61395.1 (Joules/Mol)
                                   14.67378 (Kcal/Mol)
 Warning -- explicit consideration of   3 degrees of freedom as
           vibrations may cause significant error
 Vibrational temperatures:    472.26   578.09   743.19  1023.93  1204.51
          (Kelvin)           1397.01  2069.03  2258.02  5022.23

 Zero-point correction=                           0.023384 (Hartree/Particle)
 Thermal correction to Energy=                    0.027350
 Thermal correction to Enthalpy=                  0.028294
 Thermal correction to Gibbs Free Energy=        -0.002617
 Sum of electronic and zero-point Energies=           -280.431678
 Sum of electronic and thermal Energies=              -280.427712
 Sum of electronic and thermal Enthalpies=            -280.426768
 Sum of electronic and thermal Free Energies=         -280.457679

                     E (Thermal)             CV                S
                      KCal/Mol        Cal/Mol-Kelvin    Cal/Mol-Kelvin
 Total                   17.162             12.220             65.058
 Electronic               0.000              0.000              0.000
 Translational            0.889              2.981             38.341
 Rotational               0.889              2.981             23.274
 Vibrational             15.385              6.259              3.444
 Vibration     1          0.711              1.619              1.269
 Vibration     2          0.767              1.466              0.956
 Vibration     3          0.872              1.213              0.618

                       ! Non-Optimized Parameters !

 1\1\GINC-N2109\Freq\RMP2-FC\Aug-CC-pVTZ\H1N1O3\CGAVINH\06-Mar-2022\1\\
 #p freq mp2/aug-cc-pvtz density=current\\title\\0,1\H\O,1,r1\O,2,r2,1,
 a1\N,3,r3,2,a2,1,d1,0\O,4,r4,3,a3,2,d2,0\\r1=0.98537664\r2=1.42673666\
 r3=1.38110764\r4=1.19478846\a1=100.6355057\a2=113.13777052\a3=114.3339
 2022\d1=-7.64495922\d2=0.\\Version=ES64L-G16RevB.01\State=1-A\HF=-279.
 506337\MP2=-280.4550622\RMSD=6.905e-09\RMSF=8.466e-04\ZeroPoint=0.0233
 842\Thermal=0.0273501\Dipole=-0.1120941,0.0209496,-0.4184517\DipoleDer
 iv=0.3137007,-0.0125681,0.0406877,-0.0174711,0.2998158,-0.0043959,-0.0

 Normal termination of Gaussian 16 at Sun Mar  6 19:58:10 2022.
