 Gaussian 16, Revision B.01,
 Gaussian 16:  ES64L-G16RevB.01 20-Dec-2017

 ---------------------------------------
 #p freq mp2/aug-cc-pvtz density=current
 ---------------------------------------

 -----
 title
 -----
 Symbolic Z-matrix:
 Charge =  0 Multiplicity = 1

                         Standard orientation:
 ---------------------------------------------------------------------
 Center     Atomic      Atomic             Coordinates (Angstroms)
 Number     Number       Type             X           Y           Z
 ---------------------------------------------------------------------
      1          1           0        1.103747   -0.603165    0.000000
      2          8           0        1.313841    0.359554    0.000000
      3          8           0       -0.000000    0.915790    0.000000
      4          7           0       -0.994890   -0.042152    0.000000
      5          8           0       -0.581281   -1.163066    0.000000
 ---------------------------------------------------------------------

 SCF Done:  E(RHF) =  -279.506348969     A.U. after   14 cycles
 E2 =    -0.9488468152D+00 EUMP2 =    -0.28045519578382D+03
 E2 =    -0.9488468152D+00 EUMP2 =    -0.28045519578382D+03

 The electronic state is 1-A'.
 Alpha  occ. eigenvalues --  -20.71912 -20.68692 -20.66784 -15.82646  -1.64515
 Alpha  occ. eigenvalues --   -1.50421  -1.29349  -0.96014  -0.83561  -0.75907
 Alpha  occ. eigenvalues --   -0.74009  -0.63641  -0.61813  -0.61793  -0.50585
 Alpha  occ. eigenvalues --   -0.49714
 Alpha virt. eigenvalues --    0.03513   0.05986   0.09512   0.10027   0.11970
 Alpha virt. eigenvalues --    0.12256   0.14953   0.15216   0.17743   0.18032
 Alpha virt. eigenvalues --    0.18991   0.21095   0.21668   0.24248   0.24635

 Mulliken charges:
               1
     1  H    0.277531
     2  O   -0.274234
     3  O    0.037999
     4  N    0.153847
     5  O   -0.195143
 Sum of Mulliken charges =  -0.00000

 Dipole moment (field-independent basis, Debye):
    X=              0.0356    Y=             -1.0932    Z=              0.0000  Tot=              1.0937
 Quadrupole moment (field-independent basis, Debye-Ang):
   XX=            -23.3642   YY=            -22.9370   ZZ=            -21.9309
   XY=             -1.9803   XZ=              0.0000   YZ=              0.0000

  Exact polarizability:  30.901   4.090  29.770   0.000   0.000  17.605
 Approx polarizability:  24.596   0.449  27.573  -0.000  -0.000  15.508

                      1                      2                      3
                     A"                     A'                     A"
 Frequencies --    354.9327               407.0107               527.4822
 Red. masses --      1.5500                 7.0206                 2.9316
 Frc consts  --      0.1150                 0.6852                 0.4806
 IR Inten    --     62.8763                 7.8707                25.3157

                      4                      5                      6
                     A'                     A'                     A'
 Frequencies --    716.0854               835.4719               972.9179
 Red. masses --     13.4416                12.3670                 9.6358
 Frc consts  --      4.0610                 5.0860                 5.3739
 IR Inten    --    218.2157                28.5274                12.2545

                      7                      8                      9
                     A'                     A'                     A'
 Frequencies --   1430.2687              1571.2104              3486.0729
 Red. masses --      1.3075                 6.4374                 1.0636
 Frc consts  --      1.5759                 9.3634                 7.6153
 IR Inten    --     80.6226               148.9324                43.8815

 - Thermochemistry -
 -------------------
 Temperature   298.150 Kelvin.  Pressure   1.00000 Atm.
 Atom     1 has atomic number  1 and mass   1.00783

 Molecular mass:    62.99564 amu.
 Principal axes and moments of inertia in atomic units:
                           1         2         3
     Eigenvalues --    84.80765 220.83348 305.64113
           X            0.79929  -0.60095   0.00000
           Y            0.60095   0.79929   0.00000
           Z            0.00000   0.00000   1.00000
 This molecule is an asymmetric top.
 Rotational symmetry number  1.
 Rotational temperatures (Kelvin)      1.02130     0.39221     0.28338
 Rotational constants (GHZ):          21.28041     8.17241     5.90477
 Zero-point vibrational energy      61616.4 (Joules/Mol)
                                   14.72667 (Kcal/Mol)
 Warning -- explicit consideration of   3 degrees of freedom as
           vibrations may cause significant error
 Vibrational temperatures:    510.67   585.60   758.93  1030.29  1202.06
          (Kelvin)           1399.81  2057.84  2260.62  5015.68

 Zero-point correction=                           0.023468 (Hartree/Particle)
 Thermal correction to Energy=                    0.027390
 Thermal correction to Enthalpy=                  0.028334
 Thermal correction to Gibbs Free Energy=        -0.002490
 Sum of electronic and zero-point Energies=           -280.431727
 Sum of electronic and thermal Energies=              -280.427806
 Sum of electronic and thermal Enthalpies=            -280.426861
 Sum of electronic and thermal Free Energies=         -280.457686

                     E (Thermal)             CV                S
                      KCal/Mol        Cal/Mol-Kelvin    Cal/Mol-Kelvin
 Total                   17.188             12.125             64.875
 Electronic               0.000              0.000              0.000
 Translational            0.889              2.981             38.341
 Rotational               0.889              2.981             23.264
 Vibrational             15.410              6.164              3.271
 Vibration     1          0.731              1.565              1.144
 Vibration     2          0.772              1.455              0.937
 Vibration     3          0.882              1.189              0.593

                       ! Non-Optimized Parameters !

 1\1\GINC-N2174\Freq\RMP2-FC\Aug-CC-pVTZ\H1N1O3\CGAVINH\06-Mar-2022\1\\
 #p freq mp2/aug-cc-pvtz density=current\\title\\0,1\H\O,1,r1\O,2,r2,1,
 a1\N,3,r3,2,a2,1,d1,0\O,4,r4,3,a3,2,d2,0\\r1=0.98537664\r2=1.42673666\
 r3=1.38110764\r4=1.19478846\a1=100.6355057\a2=113.13777052\a3=113.6624
 1223\d1=0.\d2=0.\\Version=ES64L-G16RevB.01\State=1-A'\HF=-279.506349\M
 P2=-280.4551958\RMSD=4.489e-09\RMSF=1.461e-03\ZeroPoint=0.0234684\Ther
 mal=0.0273902\Dipole=-0.1053908,0.,-0.4172028\DipoleDeriv=0.3185505,0.
 ,0.036931,0.,0.2978081,0.,-0.0262851,0.,0.2025187,-0.5270282,0.,0.2828

 Normal termination of Gaussian 16 at Sun Mar  6 19:46:57 2022.
