 Gaussian 16, Revision B.01,
 Gaussian 16:  ES64L-G16RevB.01 20-Dec-2017

 ---------------------------------------
 #p freq mp2/aug-cc-pvtz density=current
 ---------------------------------------

 -----
 title
 -----
 Symbolic Z-matrix:
 Charge =  0 Multiplicity = 1

                         Standard orientation:
 ---------------------------------------------------------------------
 Center     Atomic      Atomic             Coordinates (Angstroms)
 Number     Number       Type             X           Y           Z
 ---------------------------------------------------------------------
      1          1           0        0.541709   -1.137896    0.055250
      2          8           0        1.276743   -0.484516   -0.006292
      3          8           0        0.542847    0.738967    0.001722
      4          7           0       -0.825420    0.551075    0.002145
      5          8           0       -1.165061   -0.594404   -0.004212
 ---------------------------------------------------------------------

 SCF Done:  E(RHF) =  -279.506405287     A.U. after   14 cycles
 E2 =    -0.9487896463D+00 EUMP2 =    -0.28045519493331D+03
 E2 =    -0.9487896463D+00 EUMP2 =    -0.28045519493331D+03

 The electronic state is 1-A.
 Alpha  occ. eigenvalues --  -20.71977 -20.68715 -20.66836 -15.82593  -1.64419
 Alpha  occ. eigenvalues --   -1.50513  -1.29375  -0.96030  -0.83450  -0.75886
 Alpha  occ. eigenvalues --   -0.74001  -0.63766  -0.61908  -0.61765  -0.50464
 Alpha  occ. eigenvalues --   -0.49755
 Alpha virt. eigenvalues --    0.03504   0.06032   0.09512   0.10039   0.11951
 Alpha virt. eigenvalues --    0.12262   0.14950   0.15199   0.17725   0.18062
 Alpha virt. eigenvalues --    0.18957   0.21127   0.21677   0.24246   0.24632

 Mulliken charges:
               1
     1  H    0.278103
     2  O   -0.274011
     3  O    0.037609
     4  N    0.154215
     5  O   -0.195916
 Sum of Mulliken charges =  -0.00000

 Dipole moment (field-independent basis, Debye):
    X=             -0.6025    Y=             -0.9125    Z=              0.0878  Tot=              1.0970
 Quadrupole moment (field-independent basis, Debye-Ang):
   XX=            -25.1085   YY=            -21.2156   ZZ=            -21.9252
   XY=             -0.3865   XZ=              0.0409   YZ=             -0.1573

  Exact polarizability:  34.491   0.730  26.278   0.005  -0.034  17.625
 Approx polarizability:  26.133   1.633  26.080  -0.046  -0.030  15.522

                      1                      2                      3
                      A                      A                      A
 Frequencies --    346.8447               398.8366               521.6165
 Red. masses --      1.5491                 6.6618                 3.0303
 Frc consts  --      0.1098                 0.6244                 0.4858
 IR Inten    --     62.6663                 8.9155                24.1819

                      4                      5                      6
                      A                      A                      A
 Frequencies --    711.5018               836.9583               970.9852
 Red. masses --     13.0967                12.3771                 9.7819
 Frc consts  --      3.9063                 5.1083                 5.4337
 IR Inten    --    217.4655                31.0906                12.7292

                      7                      8                      9
                      A                      A                      A
 Frequencies --   1434.9995              1570.1450              3488.3282
 Red. masses --      1.3041                 6.4155                 1.0638
 Frc consts  --      1.5822                 9.3188                 7.6267
 IR Inten    --     79.7551               149.9979                42.2806

 - Thermochemistry -
 -------------------
 Temperature   298.150 Kelvin.  Pressure   1.00000 Atm.
 Atom     1 has atomic number  1 and mass   1.00783

 Molecular mass:    62.99564 amu.
 Principal axes and moments of inertia in atomic units:
                           1         2         3
     Eigenvalues --    84.53358 222.62949 307.13542
           X            0.99987  -0.01597   0.00051
           Y            0.01597   0.99987  -0.00269
           Z           -0.00047   0.00270   1.00000
 This molecule is an asymmetric top.
 Rotational symmetry number  1.
 Rotational temperatures (Kelvin)      1.02461     0.38905     0.28201
 Rotational constants (GHZ):          21.34940     8.10648     5.87604
 Zero-point vibrational energy      61489.3 (Joules/Mol)
                                   14.69631 (Kcal/Mol)
 Warning -- explicit consideration of   3 degrees of freedom as
           vibrations may cause significant error
 Vibrational temperatures:    499.03   573.84   750.49  1023.69  1204.20
          (Kelvin)           1397.03  2064.64  2259.09  5018.93

 Zero-point correction=                           0.023420 (Hartree/Particle)
 Thermal correction to Energy=                    0.027364
 Thermal correction to Enthalpy=                  0.028308
 Thermal correction to Gibbs Free Energy=        -0.002560
 Sum of electronic and zero-point Energies=           -280.431775
 Sum of electronic and thermal Energies=              -280.427831
 Sum of electronic and thermal Enthalpies=            -280.426886
 Sum of electronic and thermal Free Energies=         -280.457755

                     E (Thermal)             CV                S
                      KCal/Mol        Cal/Mol-Kelvin    Cal/Mol-Kelvin
 Total                   17.171             12.180             64.969
 Electronic               0.000              0.000              0.000
 Translational            0.889              2.981             38.341
 Rotational               0.889              2.981             23.273
 Vibrational             15.394              6.218              3.355
 Vibration     1          0.725              1.582              1.180
 Vibration     2          0.765              1.473              0.967
 Vibration     3          0.877              1.202              0.606

                       ! Non-Optimized Parameters !

 1\1\GINC-N2174\Freq\RMP2-FC\Aug-CC-pVTZ\H1N1O3\CGAVINH\06-Mar-2022\1\\
 #p freq mp2/aug-cc-pvtz density=current\\title\\0,1\H\O,1,r1\O,2,r2,1,
 a1\N,3,r3,2,a2,1,d1,0\O,4,r4,3,a3,2,d2,0\\r1=0.98537664\r2=1.42673666\
 r3=1.38110764\r4=1.19478846\a1=100.6355057\a2=113.13777052\a3=114.3339
 2022\d1=-3.82247961\d2=0.\\Version=ES64L-G16RevB.01\State=1-A\HF=-279.
 5064053\MP2=-280.4551949\RMSD=8.324e-09\RMSF=4.481e-04\ZeroPoint=0.023
 4201\Thermal=0.0273643\Dipole=-0.1106642,0.010445,-0.4170344\DipoleDer
 iv=0.3160968,-0.0064882,0.0385955,-0.008991,0.2985208,-0.0020431,-0.02

 Normal termination of Gaussian 16 at Sun Mar  6 19:56:02 2022.
