 Gaussian 16, Revision B.01,
 Gaussian 16:  ES64L-G16RevB.01 20-Dec-2017

 ---------------------------------------
 #p freq mp2/aug-cc-pvtz density=current
 ---------------------------------------

 -----
 title
 -----
 Symbolic Z-matrix:
 Charge =  0 Multiplicity = 1

                         Standard orientation:
 ---------------------------------------------------------------------
 Center     Atomic      Atomic             Coordinates (Angstroms)
 Number     Number       Type             X           Y           Z
 ---------------------------------------------------------------------
      1          1           0        1.547259    1.696846    0.000000
      2          8           0        1.453970    0.732372    0.000000
      3          8           0        0.000000    0.679814    0.000000
      4          7           0       -0.261633   -0.770312   -0.000000
      5          8           0       -1.418448   -0.950269   -0.000000
 ---------------------------------------------------------------------

 SCF Done:  E(RHF) =  -279.500209932     A.U. after   14 cycles
 E2 =    -0.9464784341D+00 EUMP2 =    -0.28044668836567D+03
 E2 =    -0.9464784341D+00 EUMP2 =    -0.28044668836567D+03

 The electronic state is 1-A'.
 Alpha  occ. eigenvalues --  -20.68839 -20.68779 -20.65818 -15.81521  -1.62344
 Alpha  occ. eigenvalues --   -1.49361  -1.25000  -0.94923  -0.77162  -0.75751
 Alpha  occ. eigenvalues --   -0.70937  -0.68012  -0.62118  -0.58863  -0.48366
 Alpha  occ. eigenvalues --   -0.47181
 Alpha virt. eigenvalues --    0.03003   0.06977   0.08566   0.10155   0.13387
 Alpha virt. eigenvalues --    0.13406   0.14439   0.15482   0.17858   0.19411
 Alpha virt. eigenvalues --    0.19973   0.20426   0.22121   0.23607   0.23721

 Mulliken charges:
               1
     1  H    0.250120
     2  O   -0.202601
     3  O   -0.156720
     4  N    0.296021
     5  O   -0.186820
 Sum of Mulliken charges =  -0.00000

 Dipole moment (field-independent basis, Debye):
    X=              0.4415    Y=              1.2752    Z=              0.0000  Tot=              1.3495
 Quadrupole moment (field-independent basis, Debye-Ang):
   XX=            -22.4438   YY=            -18.5527   ZZ=            -22.0315
   XY=              3.2838   XZ=              0.0000   YZ=              0.0000

  Exact polarizability:  33.993   9.555  30.560   0.000  -0.000  17.978
 Approx polarizability:  29.078   5.206  23.859   0.000   0.000  15.545

 ******    1 imaginary frequencies (negative Signs) ******

                      1                      2                      3
                     A"                     A"                     A'
 Frequencies --   -273.2323               235.0644               336.2860
 Red. masses --      1.1356                10.7135                 8.5654
 Frc consts  --      0.0500                 0.3488                 0.5707
 IR Inten    --    125.0810                 0.7108                 7.2792

                      4                      5                      6
                     A'                     A'                     A'
 Frequencies --    423.2573               776.4614               964.9230
 Red. masses --     12.4049                13.0633                15.4679
 Frc consts  --      1.3093                 4.6403                 8.4853
 IR Inten    --    210.0798               160.0037                21.1382

                      7                      8                      9
                     A'                     A'                     A'
 Frequencies --   1368.4834              1670.7757              3778.3672
 Red. masses --      1.1314                13.2694                 1.0676
 Frc consts  --      1.2484                21.8241                 8.9794
 IR Inten    --    150.4032               147.7538                82.7689

 - Thermochemistry -
 -------------------
 Temperature   298.150 Kelvin.  Pressure   1.00000 Atm.
 Atom     1 has atomic number  1 and mass   1.00783

 Molecular mass:    62.99564 amu.
 Principal axes and moments of inertia in atomic units:
                           1         2         3
     Eigenvalues --    33.21547 362.85026 396.06572
           X            0.80642  -0.59135   0.00000
           Y            0.59135   0.80642   0.00000
           Z            0.00000  -0.00000   1.00000
 This molecule is an asymmetric top.
 Rotational symmetry number  1.
 Rotational temperatures (Kelvin)      2.60764     0.23870     0.21869
 Rotational constants (GHZ):          54.33436     4.97379     4.55667
    1 imaginary frequencies ignored.
 Zero-point vibrational energy      57143.3 (Joules/Mol)
                                   13.65758 (Kcal/Mol)
 Warning -- explicit consideration of   3 degrees of freedom as
           vibrations may cause significant error
 Vibrational temperatures:    338.21   483.84   608.97  1117.15  1388.31
          (Kelvin)           1968.94  2403.87  5436.23

 Zero-point correction=                           0.021765 (Hartree/Particle)
 Thermal correction to Energy=                    0.025908
 Thermal correction to Enthalpy=                  0.026852
 Thermal correction to Gibbs Free Energy=        -0.004381
 Sum of electronic and zero-point Energies=           -280.424924
 Sum of electronic and thermal Energies=              -280.420781
 Sum of electronic and thermal Enthalpies=            -280.419836
 Sum of electronic and thermal Free Energies=         -280.451070

                     E (Thermal)             CV                S
                      KCal/Mol        Cal/Mol-Kelvin    Cal/Mol-Kelvin
 Total                   16.257             12.038             65.736
 Electronic               0.000              0.000              0.000
 Translational            0.889              2.981             38.341
 Rotational               0.889              2.981             23.083
 Vibrational             14.480              6.076              4.312
 Vibration     1          0.655              1.787              1.840
 Vibration     2          0.717              1.603              1.230
 Vibration     3          0.785              1.420              0.881

                       ! Non-Optimized Parameters !

 1\1\GINC-N2228\Freq\RMP2-FC\Aug-CC-pVTZ\H1N1O3\CGAVINH\21-Feb-2022\1\\
 #p freq mp2/aug-cc-pvtz density=current\\title\\0,1\H\O,1,r1\O,2,r2,1,
 a1\N,3,r3,2,a2,1,d1,0\O,4,r4,3,a3,2,d2,0\\r1=0.96897556\r2=1.45491931\
 r3=1.47353921\r4=1.17072885\a1=97.59494903\a2=102.29752444\a3=109.0695
 5123\d1=180.\d2=180.\\Version=ES64L-G16RevB.01\State=1-A'\HF=-279.5002
 099\MP2=-280.4466884\RMSD=4.003e-09\RMSF=1.470e-03\ZeroPoint=0.0217647
 \Thermal=0.0259077\Dipole=-0.1245927,0.,-0.5160968\DipoleDeriv=0.26508
 59,0.,0.0468929,0.,0.3551165,0.,0.0821388,0.,0.2756445,-0.3308375,0.,-

 Normal termination of Gaussian 16 at Mon Feb 21 20:16:41 2022.
