 Gaussian 16, Revision B.01,
 Gaussian 16:  ES64L-G16RevB.01 20-Dec-2017

 ---------------------------------------
 #p freq mp2/aug-cc-pvtz density=current
 ---------------------------------------

 -----
 title
 -----
 Symbolic Z-matrix:
 Charge =  0 Multiplicity = 1

                         Standard orientation:
 ---------------------------------------------------------------------
 Center     Atomic      Atomic             Coordinates (Angstroms)
 Number     Number       Type             X           Y           Z
 ---------------------------------------------------------------------
      1          1           0        0.545615   -1.136345    0.095569
      2          8           0        1.276702   -0.484314   -0.010893
      3          8           0        0.542603    0.738994    0.002963
      4          7           0       -0.825631    0.550861    0.003713
      5          8           0       -1.165080   -0.594640   -0.007265
 ---------------------------------------------------------------------

 SCF Done:  E(RHF) =  -279.506359273     A.U. after   16 cycles
 E2 =    -0.9487466664D+00 EUMP2 =    -0.28045510593903D+03
 E2 =    -0.9487466664D+00 EUMP2 =    -0.28045510593903D+03

 The electronic state is 1-A.
 Alpha  occ. eigenvalues --  -20.71969 -20.68695 -20.66849 -15.82575  -1.64400
 Alpha  occ. eigenvalues --   -1.50509  -1.29371  -0.96020  -0.83407  -0.75874
 Alpha  occ. eigenvalues --   -0.74009  -0.63821  -0.61924  -0.61670  -0.50450
 Alpha  occ. eigenvalues --   -0.49761
 Alpha virt. eigenvalues --    0.03498   0.06045   0.09512   0.10041   0.11913
 Alpha virt. eigenvalues --    0.12265   0.14983   0.15189   0.17680   0.18107
 Alpha virt. eigenvalues --    0.18919   0.21177   0.21688   0.24232   0.24625

 Mulliken charges:
               1
     1  H    0.278468
     2  O   -0.273660
     3  O    0.037042
     4  N    0.154541
     5  O   -0.196390
 Sum of Mulliken charges =  -0.00000

 Dipole moment (field-independent basis, Debye):
    X=             -0.5955    Y=             -0.9130    Z=              0.1520  Tot=              1.1006
 Quadrupole moment (field-independent basis, Debye-Ang):
   XX=            -25.1063   YY=            -21.2246   ZZ=            -21.9090
   XY=             -0.3965   XZ=              0.0716   YZ=             -0.2718

  Exact polarizability:  34.473   0.731  26.282   0.009  -0.058  17.636
 Approx polarizability:  26.114   1.631  26.082  -0.080  -0.051  15.538

                      1                      2                      3
                      A                      A                      A
 Frequencies --    334.2110               401.0245               518.1491
 Red. masses --      1.5114                 6.4523                 3.2730
 Frc consts  --      0.0995                 0.6114                 0.5177
 IR Inten    --     63.6444                 9.6967                21.8212

                      4                      5                      6
                      A                      A                      A
 Frequencies --    711.6234               837.1066               970.9778
 Red. masses --     12.6885                12.3774                 9.8185
 Frc consts  --      3.7858                 5.1102                 5.4540
 IR Inten    --    217.9369                31.6845                12.6861

                      7                      8                      9
                      A                      A                      A
 Frequencies --   1437.0576              1569.6489              3489.8686
 Red. masses --      1.3011                 6.4404                 1.0638
 Frc consts  --      1.5831                 9.3490                 7.6337
 IR Inten    --     79.3697               149.4459                41.3962

 - Thermochemistry -
 -------------------
 Temperature   298.150 Kelvin.  Pressure   1.00000 Atm.
 Atom     1 has atomic number  1 and mass   1.00783

 Molecular mass:    62.99564 amu.
 Principal axes and moments of inertia in atomic units:
                           1         2         3
     Eigenvalues --    84.54479 222.67148 307.13355
           X            0.99987  -0.01605   0.00089
           Y            0.01606   0.99986  -0.00465
           Z           -0.00081   0.00466   0.99999
 This molecule is an asymmetric top.
 Rotational symmetry number  1.
 Rotational temperatures (Kelvin)      1.02447     0.38898     0.28201
 Rotational constants (GHZ):          21.34657     8.10495     5.87608
 Zero-point vibrational energy      61426.3 (Joules/Mol)
                                   14.68123 (Kcal/Mol)
 Warning -- explicit consideration of   3 degrees of freedom as
           vibrations may cause significant error
 Vibrational temperatures:    480.86   576.98   745.50  1023.87  1204.41
          (Kelvin)           1397.02  2067.61  2258.37  5021.14

 Zero-point correction=                           0.023396 (Hartree/Particle)
 Thermal correction to Energy=                    0.027355
 Thermal correction to Enthalpy=                  0.028299
 Thermal correction to Gibbs Free Energy=        -0.002598
 Sum of electronic and zero-point Energies=           -280.431710
 Sum of electronic and thermal Energies=              -280.427751
 Sum of electronic and thermal Enthalpies=            -280.426807
 Sum of electronic and thermal Free Energies=         -280.457704

                     E (Thermal)             CV                S
                      KCal/Mol        Cal/Mol-Kelvin    Cal/Mol-Kelvin
 Total                   17.165             12.207             65.028
 Electronic               0.000              0.000              0.000
 Translational            0.889              2.981             38.341
 Rotational               0.889              2.981             23.274
 Vibrational             15.388              6.245              3.414
 Vibration     1          0.716              1.607              1.240
 Vibration     2          0.767              1.468              0.959
 Vibration     3          0.873              1.210              0.614

                       ! Non-Optimized Parameters !

 1\1\GINC-N2219\Freq\RMP2-FC\Aug-CC-pVTZ\H1N1O3\CGAVINH\06-Mar-2022\1\\
 #p freq mp2/aug-cc-pvtz density=current\\title\\0,1\H\O,1,r1\O,2,r2,1,
 a1\N,3,r3,2,a2,1,d1,0\O,4,r4,3,a3,2,d2,0\\r1=0.98537664\r2=1.42673666\
 r3=1.38110764\r4=1.19478846\a1=100.6355057\a2=113.13777052\a3=114.3339
 2022\d1=-6.62072889\d2=0.\\Version=ES64L-G16RevB.01\State=1-A\HF=-279.
 5063593\MP2=-280.4551059\RMSD=6.768e-09\RMSF=7.348e-04\ZeroPoint=0.023
 396\Thermal=0.0273547\Dipole=-0.1116227,0.0181266,-0.4179758\DipoleDer
 iv=0.3144915,-0.0110009,0.040001,-0.0152762,0.2993953,-0.0037194,-0.02

 Normal termination of Gaussian 16 at Sun Mar  6 19:56:47 2022.
