 Gaussian 16, Revision B.01,
 Gaussian 16:  ES64L-G16RevB.01 20-Dec-2017

 ---------------------------------------
 #p freq mp2/aug-cc-pvtz density=current
 ---------------------------------------

 -----
 title
 -----
 Symbolic Z-matrix:
 Charge =  0 Multiplicity = 1

                         Standard orientation:
 ---------------------------------------------------------------------
 Center     Atomic      Atomic             Coordinates (Angstroms)
 Number     Number       Type             X           Y           Z
 ---------------------------------------------------------------------
      1          1           0        1.107880   -0.596742    0.000000
      2          8           0        1.315351    0.366545    0.000000
      3          8           0       -0.000000    0.919201    0.000000
      4          7           0       -0.992277   -0.041447    0.000000
      5          8           0       -0.585594   -1.174887    0.000000
 ---------------------------------------------------------------------

 SCF Done:  E(RHF) =  -279.504704143     A.U. after   14 cycles
 E2 =    -0.9504300432D+00 EUMP2 =    -0.28045513418575D+03
 E2 =    -0.9504300432D+00 EUMP2 =    -0.28045513418575D+03

 The electronic state is 1-A'.
 Alpha  occ. eigenvalues --  -20.72194 -20.68678 -20.66911 -15.82755  -1.63926
 Alpha  occ. eigenvalues --   -1.50280  -1.29470  -0.96177  -0.83275  -0.75696
 Alpha  occ. eigenvalues --   -0.73862  -0.63730  -0.61856  -0.61620  -0.50638
 Alpha  occ. eigenvalues --   -0.49811
 Alpha virt. eigenvalues --    0.03513   0.05735   0.09505   0.10032   0.11993
 Alpha virt. eigenvalues --    0.12251   0.14932   0.15202   0.17725   0.18041
 Alpha virt. eigenvalues --    0.18976   0.21101   0.21666   0.24164   0.24618

 Mulliken charges:
               1
     1  H    0.278685
     2  O   -0.273534
     3  O    0.039955
     4  N    0.154270
     5  O   -0.199375
 Sum of Mulliken charges =  -0.00000

 Dipole moment (field-independent basis, Debye):
    X=              0.0737    Y=             -1.0528    Z=              0.0000  Tot=              1.0554
 Quadrupole moment (field-independent basis, Debye-Ang):
   XX=            -23.3960   YY=            -22.9539   ZZ=            -21.9521
   XY=             -1.9951   XZ=              0.0000   YZ=              0.0000

  Exact polarizability:  30.996   4.203  30.061   0.000   0.000  17.646
 Approx polarizability:  24.622   0.500  27.909  -0.000  -0.000  15.558

                      1                      2                      3
                     A"                     A'                     A"
 Frequencies --    358.6377               398.0797               531.9964
 Red. masses --      1.5188                 7.0256                 3.0490
 Frc consts  --      0.1151                 0.6560                 0.5084
 IR Inten    --     64.5783                 8.1475                23.7941

                      4                      5                      6
                     A'                     A'                     A'
 Frequencies --    715.2547               836.8414               968.6816
 Red. masses --     13.1406                12.4556                 9.8633
 Frc consts  --      3.9608                 5.1393                 5.4530
 IR Inten    --    212.7599                34.7412                13.5065

                      7                      8                      9
                     A'                     A'                     A'
 Frequencies --   1426.1506              1524.8184              3486.3534
 Red. masses --      1.4834                 4.0365                 1.0638
 Frc consts  --      1.7776                 5.5296                 7.6181
 IR Inten    --     78.5163               141.5597                42.9500

 - Thermochemistry -
 -------------------
 Temperature   298.150 Kelvin.  Pressure   1.00000 Atm.
 Atom     1 has atomic number  1 and mass   1.00783

 Molecular mass:    62.99564 amu.
 Principal axes and moments of inertia in atomic units:
                           1         2         3
     Eigenvalues --    85.13639 222.98755 308.12393
           X            0.79379  -0.60820   0.00000
           Y            0.60820   0.79379   0.00000
           Z            0.00000   0.00000   1.00000
 This molecule is an asymmetric top.
 Rotational symmetry number  1.
 Rotational temperatures (Kelvin)      1.01735     0.38842     0.28110
 Rotational constants (GHZ):          21.19824     8.09346     5.85719
 Zero-point vibrational energy      61289.6 (Joules/Mol)
                                   14.64856 (Kcal/Mol)
 Warning -- explicit consideration of   3 degrees of freedom as
           vibrations may cause significant error
 Vibrational temperatures:    516.00   572.75   765.42  1029.09  1204.03
          (Kelvin)           1393.72  2051.91  2193.87  5016.08

 Zero-point correction=                           0.023344 (Hartree/Particle)
 Thermal correction to Energy=                    0.027269
 Thermal correction to Enthalpy=                  0.028213
 Thermal correction to Gibbs Free Energy=        -0.002626
 Sum of electronic and zero-point Energies=           -280.431790
 Sum of electronic and thermal Energies=              -280.427865
 Sum of electronic and thermal Enthalpies=            -280.426921
 Sum of electronic and thermal Free Energies=         -280.457760

                     E (Thermal)             CV                S
                      KCal/Mol        Cal/Mol-Kelvin    Cal/Mol-Kelvin
 Total                   17.111             12.143             64.907
 Electronic               0.000              0.000              0.000
 Translational            0.889              2.981             38.341
 Rotational               0.889              2.981             23.285
 Vibrational             15.334              6.181              3.281
 Vibration     1          0.733              1.557              1.128
 Vibration     2          0.764              1.474              0.970
 Vibration     3          0.887              1.179              0.583

                       ! Non-Optimized Parameters !

 1\1\GINC-N2218\Freq\RMP2-FC\Aug-CC-pVTZ\H1N1O3\CGAVINH\06-Mar-2022\1\\
 #p freq mp2/aug-cc-pvtz density=current\\title\\0,1\H\O,1,r1\O,2,r2,1,
 a1\N,3,r3,2,a2,1,d1,0\O,4,r4,3,a3,2,d2,0\\r1=0.98537664\r2=1.42673666\
 r3=1.38110764\r4=1.20419134\a1=100.6355057\a2=113.13777052\a3=114.3339
 2022\d1=0.\d2=0.\\Version=ES64L-G16RevB.01\State=1-A'\HF=-279.5047041\
 MP2=-280.4551342\RMSD=5.050e-09\RMSF=4.173e-03\ZeroPoint=0.023344\Ther
 mal=0.0272688\Dipole=-0.1155658,0.,-0.3988255\DipoleDeriv=0.31714,0.,0
 .0381788,0.,0.2980171,0.,-0.0240036,0.,0.2006711,-0.5290148,0.,0.28474

 Normal termination of Gaussian 16 at Sun Mar  6 19:16:59 2022.
