 Gaussian 16, Revision B.01,
 Gaussian 16:  ES64L-G16RevB.01 20-Dec-2017

 ---------------------------------------
 #p freq mp2/aug-cc-pvtz density=current
 ---------------------------------------

 -----
 title
 -----
 Symbolic Z-matrix:
 Charge =  0 Multiplicity = 1

                         Standard orientation:
 ---------------------------------------------------------------------
 Center     Atomic      Atomic             Coordinates (Angstroms)
 Number     Number       Type             X           Y           Z
 ---------------------------------------------------------------------
      1          1           0        1.095968   -0.615228   -0.000000
      2          8           0        1.310981    0.346404    0.000000
      3          8           0        0.000000    0.909349    0.000000
      4          7           0       -0.982752   -0.027271   -0.000000
      5          8           0       -0.588069   -1.154988   -0.000000
 ---------------------------------------------------------------------

 SCF Done:  E(RHF) =  -279.508187708     A.U. after   14 cycles
 E2 =    -0.9468432230D+00 EUMP2 =    -0.28045503093136D+03
 E2 =    -0.9468432230D+00 EUMP2 =    -0.28045503093136D+03

 The electronic state is 1-A'.
 Alpha  occ. eigenvalues --  -20.72375 -20.68171 -20.66958 -15.82312  -1.65061
 Alpha  occ. eigenvalues --   -1.50506  -1.30229  -0.95919  -0.83719  -0.76202
 Alpha  occ. eigenvalues --   -0.74552  -0.63835  -0.61785  -0.61617  -0.50478
 Alpha  occ. eigenvalues --   -0.49980
 Alpha virt. eigenvalues --    0.03496   0.06381   0.09514   0.10049   0.11970
 Alpha virt. eigenvalues --    0.12308   0.14861   0.15158   0.17739   0.18070
 Alpha virt. eigenvalues --    0.18961   0.21123   0.21661   0.24267   0.24647

 Mulliken charges:
               1
     1  H    0.278065
     2  O   -0.277617
     3  O    0.056397
     4  N    0.146028
     5  O   -0.202873
 Sum of Mulliken charges =  -0.00000

 Dipole moment (field-independent basis, Debye):
    X=              0.1066    Y=             -0.9871    Z=             -0.0000  Tot=              0.9929
 Quadrupole moment (field-independent basis, Debye-Ang):
   XX=            -23.4594   YY=            -22.8894   ZZ=            -21.8947
   XY=             -2.0234   XZ=             -0.0000   YZ=             -0.0000

  Exact polarizability:  30.798   3.965  29.509  -0.000   0.000  17.542
 Approx polarizability:  24.380   0.416  27.302   0.000   0.000  15.475

                      1                      2                      3
                     A"                     A'                     A"
 Frequencies --    363.4057               415.9276               528.5376
 Red. masses --      1.6266                 6.9058                 2.6938
 Frc consts  --      0.1266                 0.7039                 0.4434
 IR Inten    --     60.9887                 7.3995                27.7150

                      4                      5                      6
                     A'                     A'                     A'
 Frequencies --    798.2300               838.7244               977.6033
 Red. masses --     12.9881                12.9350                 9.4773
 Frc consts  --      4.8759                 5.3611                 5.3365
 IR Inten    --    180.6507                45.7460                15.8178

                      7                      8                      9
                     A'                     A'                     A'
 Frequencies --   1431.5889              1582.8774              3484.6717
 Red. masses --      1.2932                 6.9686                 1.0634
 Frc consts  --      1.5616                10.2870                 7.6082
 IR Inten    --     81.8587               150.7130                47.0158

 - Thermochemistry -
 -------------------
 Temperature   298.150 Kelvin.  Pressure   1.00000 Atm.
 Atom     1 has atomic number  1 and mass   1.00783

 Molecular mass:    62.99564 amu.
 Principal axes and moments of inertia in atomic units:
                           1         2         3
     Eigenvalues --    84.48951 217.64420 302.13371
           X            0.80358  -0.59520   0.00000
           Y            0.59520   0.80358   0.00000
           Z            0.00000  -0.00000   1.00000
 This molecule is an asymmetric top.
 Rotational symmetry number  1.
 Rotational temperatures (Kelvin)      1.02514     0.39796     0.28667
 Rotational constants (GHZ):          21.36054     8.29216     5.97332
 Zero-point vibrational energy      62334.8 (Joules/Mol)
                                   14.89838 (Kcal/Mol)
 Warning -- explicit consideration of   3 degrees of freedom as
           vibrations may cause significant error
 Vibrational temperatures:    522.86   598.43   760.45  1148.47  1206.74
          (Kelvin)           1406.55  2059.74  2277.41  5013.67

 Zero-point correction=                           0.023742 (Hartree/Particle)
 Thermal correction to Energy=                    0.027616
 Thermal correction to Enthalpy=                  0.028561
 Thermal correction to Gibbs Free Energy=        -0.002176
 Sum of electronic and zero-point Energies=           -280.431289
 Sum of electronic and thermal Energies=              -280.427415
 Sum of electronic and thermal Enthalpies=            -280.426470
 Sum of electronic and thermal Free Energies=         -280.457207

                     E (Thermal)             CV                S
                      KCal/Mol        Cal/Mol-Kelvin    Cal/Mol-Kelvin
 Total                   17.330             11.928             64.691
 Electronic               0.000              0.000              0.000
 Translational            0.889              2.981             38.341
 Rotational               0.889              2.981             23.234
 Vibrational             15.552              5.966              3.117
 Vibration     1          0.737              1.548              1.107
 Vibration     2          0.779              1.436              0.906
 Vibration     3          0.883              1.187              0.590

                       ! Non-Optimized Parameters !

 1\1\GINC-N2110\Freq\RMP2-FC\Aug-CC-pVTZ\H1N1O3\CGAVINH\06-Mar-2022\1\\
 #p freq mp2/aug-cc-pvtz density=current\\title\\0,1\H\O,1,r1\O,2,r2,1,
 a1\N,3,r3,2,a2,1,d1,0\O,4,r4,3,a3,2,d2,0\\r1=0.98537664\r2=1.42673666\
 r3=1.35759296\r4=1.19478846\a1=100.6355057\a2=113.13777052\a3=114.3339
 2022\d1=0.\d2=0.\\Version=ES64L-G16RevB.01\State=1-A'\HF=-279.5081877\
 MP2=-280.4550309\RMSD=3.780e-09\RMSF=3.358e-03\ZeroPoint=0.0237421\The
 rmal=0.0276164\Dipole=-0.1256907,0.,-0.3698502\DipoleDeriv=0.322739,0.
 ,0.035923,0.,0.2983494,0.,-0.0275731,0.,0.2098575,-0.5368757,0.,0.2840

 Normal termination of Gaussian 16 at Sun Mar  6 19:13:17 2022.
