 Gaussian 16, Revision B.01,
 Gaussian 16:  ES64L-G16RevB.01 20-Dec-2017

 ---------------------------------------
 #p freq mp2/aug-cc-pvtz density=current
 ---------------------------------------

 -----
 title
 -----
 Symbolic Z-matrix:
 Charge =  0 Multiplicity = 1

                         Standard orientation:
 ---------------------------------------------------------------------
 Center     Atomic      Atomic             Coordinates (Angstroms)
 Number     Number       Type             X           Y           Z
 ---------------------------------------------------------------------
      1          1           0        1.108362   -0.597203    0.000000
      2          8           0        1.315527    0.366150    0.000000
      3          8           0        0.000000    0.918388    0.000000
      4          7           0       -0.991972   -0.042576    0.000000
      5          8           0       -0.586097   -1.172634    0.000000
 ---------------------------------------------------------------------

 SCF Done:  E(RHF) =  -279.505364727     A.U. after   14 cycles
 E2 =    -0.9498339243D+00 EUMP2 =    -0.28045519865175D+03
 E2 =    -0.9498339243D+00 EUMP2 =    -0.28045519865175D+03

 The electronic state is 1-A'.
 Alpha  occ. eigenvalues --  -20.72116 -20.68696 -20.66881 -15.82699  -1.64107
 Alpha  occ. eigenvalues --   -1.50370  -1.29436  -0.96125  -0.83346  -0.75767
 Alpha  occ. eigenvalues --   -0.73910  -0.63732  -0.61864  -0.61701  -0.50577
 Alpha  occ. eigenvalues --   -0.49789
 Alpha virt. eigenvalues --    0.03511   0.05841   0.09508   0.10034   0.11985
 Alpha virt. eigenvalues --    0.12255   0.14932   0.15203   0.17735   0.18039
 Alpha virt. eigenvalues --    0.18977   0.21101   0.21667   0.24197   0.24624

 Mulliken charges:
               1
     1  H    0.278407
     2  O   -0.273776
     3  O    0.039206
     4  N    0.154209
     5  O   -0.198046
 Sum of Mulliken charges =  -0.00000

 Dipole moment (field-independent basis, Debye):
    X=              0.0657    Y=             -1.0678    Z=              0.0000  Tot=              1.0698
 Quadrupole moment (field-independent basis, Debye-Ang):
   XX=            -23.3896   YY=            -22.9497   ZZ=            -21.9452
   XY=             -1.9875   XZ=              0.0000   YZ=              0.0000

  Exact polarizability:  30.968   4.181  29.985   0.000   0.000  17.636
 Approx polarizability:  24.599   0.507  27.817  -0.000  -0.000  15.542

                      1                      2                      3
                     A"                     A'                     A"
 Frequencies --    356.8907               397.7952               528.9780
 Red. masses --      1.5316                 7.0383                 3.0002
 Frc consts  --      0.1149                 0.6562                 0.4946
 IR Inten    --     63.9705                 8.0116                24.3799

                      4                      5                      6
                     A'                     A'                     A'
 Frequencies --    713.8387               836.8850               969.5569
 Red. masses --     13.2125                12.4286                 9.8251
 Frc consts  --      3.9667                 5.1286                 5.4417
 IR Inten    --    214.4258                33.2603                13.2204

                      7                      8                      9
                     A'                     A'                     A'
 Frequencies --   1429.6069              1540.7001              3486.7932
 Red. masses --      1.3938                 4.8904                 1.0638
 Frc consts  --      1.6784                 6.8396                 7.6199
 IR Inten    --     78.9228               144.8773                42.8804

 - Thermochemistry -
 -------------------
 Temperature   298.150 Kelvin.  Pressure   1.00000 Atm.
 Atom     1 has atomic number  1 and mass   1.00783

 Molecular mass:    62.99564 amu.
 Principal axes and moments of inertia in atomic units:
                           1         2         3
     Eigenvalues --    84.91277 222.84733 307.76010
           X            0.79472  -0.60698   0.00000
           Y            0.60698   0.79472   0.00000
           Z            0.00000   0.00000   1.00000
 This molecule is an asymmetric top.
 Rotational symmetry number  1.
 Rotational temperatures (Kelvin)      1.02003     0.38867     0.28143
 Rotational constants (GHZ):          21.25406     8.09855     5.86412
 Zero-point vibrational energy      61374.7 (Joules/Mol)
                                   14.66890 (Kcal/Mol)
 Warning -- explicit consideration of   3 degrees of freedom as
           vibrations may cause significant error
 Vibrational temperatures:    513.49   572.34   761.08  1027.05  1204.09
          (Kelvin)           1394.98  2056.89  2216.72  5016.72

 Zero-point correction=                           0.023376 (Hartree/Particle)
 Thermal correction to Energy=                    0.027305
 Thermal correction to Enthalpy=                  0.028250
 Thermal correction to Gibbs Free Energy=        -0.002595
 Sum of electronic and zero-point Energies=           -280.431822
 Sum of electronic and thermal Energies=              -280.427893
 Sum of electronic and thermal Enthalpies=            -280.426949
 Sum of electronic and thermal Free Energies=         -280.457794

                     E (Thermal)             CV                S
                      KCal/Mol        Cal/Mol-Kelvin    Cal/Mol-Kelvin
 Total                   17.134             12.151             64.918
 Electronic               0.000              0.000              0.000
 Translational            0.889              2.981             38.341
 Rotational               0.889              2.981             23.281
 Vibrational             15.357              6.189              3.297
 Vibration     1          0.732              1.561              1.136
 Vibration     2          0.764              1.475              0.971
 Vibration     3          0.884              1.186              0.589

                       ! Non-Optimized Parameters !

 1\1\GINC-N2174\Freq\RMP2-FC\Aug-CC-pVTZ\H1N1O3\CGAVINH\06-Mar-2022\1\\
 #p freq mp2/aug-cc-pvtz density=current\\title\\0,1\H\O,1,r1\O,2,r2,1,
 a1\N,3,r3,2,a2,1,d1,0\O,4,r4,3,a3,2,d2,0\\r1=0.98537664\r2=1.42673666\
 r3=1.38110764\r4=1.20073537\a1=100.6355057\a2=113.13777052\a3=114.3339
 2022\d1=0.\d2=0.\\Version=ES64L-G16RevB.01\State=1-A'\HF=-279.5053647\
 MP2=-280.4551987\RMSD=4.845e-09\RMSF=2.631e-03\ZeroPoint=0.0233764\The
 rmal=0.0273055\Dipole=-0.1135888,0.,-0.405292\DipoleDeriv=0.3170599,0.
 ,0.0380597,0.,0.298037,0.,-0.024167,0.,0.2004074,-0.5287258,0.,0.28351

 Normal termination of Gaussian 16 at Sun Mar  6 19:16:25 2022.
