 Gaussian 16, Revision B.01,
 Gaussian 16:  ES64L-G16RevB.01 20-Dec-2017

 ---------------------------------------
 #p freq mp2/aug-cc-pvtz density=current
 ---------------------------------------

 -----
 title
 -----
 Symbolic Z-matrix:
 Charge =  0 Multiplicity = 1

                         Standard orientation:
 ---------------------------------------------------------------------
 Center     Atomic      Atomic             Coordinates (Angstroms)
 Number     Number       Type             X           Y           Z
 ---------------------------------------------------------------------
      1          1           0        1.112038   -0.584562    0.000000
      2          8           0        1.315773    0.364900    0.000000
      3          8           0        0.000000    0.916551    0.000000
      4          7           0       -0.991543   -0.044854    0.000000
      5          8           0       -0.587177   -1.169135    0.000000
 ---------------------------------------------------------------------

 SCF Done:  E(RHF) =  -279.507118795     A.U. after   14 cycles
 E2 =    -0.9479555822D+00 EUMP2 =    -0.28045507437712D+03
 E2 =    -0.9479555822D+00 EUMP2 =    -0.28045507437712D+03

 The electronic state is 1-A'.
 Alpha  occ. eigenvalues --  -20.72002 -20.68711 -20.66778 -15.82603  -1.64455
 Alpha  occ. eigenvalues --   -1.50640  -1.29643  -0.96125  -0.83537  -0.75910
 Alpha  occ. eigenvalues --   -0.74021  -0.64058  -0.61917  -0.61870  -0.50456
 Alpha  occ. eigenvalues --   -0.49812
 Alpha virt. eigenvalues --    0.03518   0.06032   0.09503   0.10042   0.11961
 Alpha virt. eigenvalues --    0.12257   0.14957   0.15215   0.17729   0.18027
 Alpha virt. eigenvalues --    0.18974   0.21119   0.21685   0.24206   0.24631

 Mulliken charges:
               1
     1  H    0.269027
     2  O   -0.264184
     3  O    0.037870
     4  N    0.153246
     5  O   -0.195959
 Sum of Mulliken charges =  -0.00000

 Dipole moment (field-independent basis, Debye):
    X=              0.0559    Y=             -1.0810    Z=              0.0000  Tot=              1.0824
 Quadrupole moment (field-independent basis, Debye-Ang):
   XX=            -23.3580   YY=            -22.9621   ZZ=            -21.9154
   XY=             -1.9611   XZ=              0.0000   YZ=              0.0000

  Exact polarizability:  30.834   4.143  29.758   0.000   0.000  17.585
 Approx polarizability:  24.488   0.495  27.539  -0.000  -0.000  15.493

 ******    1 imaginary frequencies (negative Signs) ******

                      1                      2                      3
                     A"                     A'                     A"
 Frequencies --   -202.1700               392.6189               499.1801
 Red. masses --      1.1873                 6.8690                 6.9271
 Frc consts  --      0.0286                 0.6239                 1.0170
 IR Inten    --     83.4383                 8.0338                 6.2644

                      4                      5                      6
                     A'                     A'                     A'
 Frequencies --    709.8197               837.6610               964.8970
 Red. masses --     12.9398                12.5995                 8.7539
 Frc consts  --      3.8413                 5.2088                 4.8019
 IR Inten    --    218.9287                30.7806                15.3551

                      7                      8                      9
                     A'                     A'                     A'
 Frequencies --   1406.3374              1566.7438              3672.4891
 Red. masses --      1.2794                 8.0445                 1.0642
 Frc consts  --      1.4909                11.6345                 8.4569
 IR Inten    --     76.0031               147.8619                41.0410

 - Thermochemistry -
 -------------------
 Temperature   298.150 Kelvin.  Pressure   1.00000 Atm.
 Atom     1 has atomic number  1 and mass   1.00783

 Molecular mass:    62.99564 amu.
 Principal axes and moments of inertia in atomic units:
                           1         2         3
     Eigenvalues --    84.45005 222.65026 307.10031
           X            0.79650  -0.60464   0.00000
           Y            0.60464   0.79650   0.00000
           Z            0.00000   0.00000   1.00000
 This molecule is an asymmetric top.
 Rotational symmetry number  1.
 Rotational temperatures (Kelvin)      1.02562     0.38901     0.28204
 Rotational constants (GHZ):          21.37052     8.10572     5.87672
    1 imaginary frequencies ignored.
 Zero-point vibrational energy      60110.8 (Joules/Mol)
                                   14.36683 (Kcal/Mol)
 Warning -- explicit consideration of   2 degrees of freedom as
           vibrations may cause significant error
 Vibrational temperatures:    564.89   718.21  1021.27  1205.21  1388.27
          (Kelvin)           2023.41  2254.19  5283.89

 Zero-point correction=                           0.022895 (Hartree/Particle)
 Thermal correction to Energy=                    0.026499
 Thermal correction to Enthalpy=                  0.027443
 Thermal correction to Gibbs Free Energy=        -0.002904
 Sum of electronic and zero-point Energies=           -280.432179
 Sum of electronic and thermal Energies=              -280.428575
 Sum of electronic and thermal Enthalpies=            -280.427631
 Sum of electronic and thermal Free Energies=         -280.457978

                     E (Thermal)             CV                S
                      KCal/Mol        Cal/Mol-Kelvin    Cal/Mol-Kelvin
 Total                   16.628             10.681             63.871
 Electronic               0.000              0.000              0.000
 Translational            0.889              2.981             38.341
 Rotational               0.889              2.981             23.272
 Vibrational             14.851              4.719              2.258
 Vibration     1          0.760              1.486              0.990
 Vibration     2          0.855              1.252              0.660

                       ! Non-Optimized Parameters !

 1\1\GINC-N2108\Freq\RMP2-FC\Aug-CC-pVTZ\H1N1O3\CGAVINH\06-Mar-2022\1\\
 #p freq mp2/aug-cc-pvtz density=current\\title\\0,1\H\O,1,r1\O,2,r2,1,
 a1\N,3,r3,2,a2,1,d1,0\O,4,r4,3,a3,2,d2,0\\r1=0.97107499\r2=1.42673666\
 r3=1.38110764\r4=1.19478846\a1=100.6355057\a2=113.13777052\a3=114.3339
 2022\d1=0.\d2=0.\\Version=ES64L-G16RevB.01\State=1-A'\HF=-279.5071188\
 MP2=-280.4550744\RMSD=4.223e-09\RMSF=4.493e-03\ZeroPoint=0.022895\Ther
 mal=0.026499\Dipole=-0.1107418,0.,-0.4112111\DipoleDeriv=0.3114219,0.,
 0.0398852,0.,0.3003058,0.,-0.0173628,0.,0.1965932,-0.5270693,0.,0.2816

 Normal termination of Gaussian 16 at Sun Mar  6 18:55:14 2022.
