 Gaussian 16, Revision B.01,
 Gaussian 16:  ES64L-G16RevB.01 20-Dec-2017

 ---------------------------------------
 #p freq mp2/aug-cc-pvtz density=current
 ---------------------------------------

 -----
 title
 -----
 Symbolic Z-matrix:
 Charge =  0 Multiplicity = 1

                         Standard orientation:
 ---------------------------------------------------------------------
 Center     Atomic      Atomic             Coordinates (Angstroms)
 Number     Number       Type             X           Y           Z
 ---------------------------------------------------------------------
      1          1           0        1.103173   -0.590820    0.000000
      2          8           0        1.306490    0.373353    0.000000
      3          8           0        0.000000    0.915672    0.000000
      4          7           0       -0.988127   -0.049244    0.000000
      5          8           0       -0.579776   -1.172084    0.000000
 ---------------------------------------------------------------------

 SCF Done:  E(RHF) =  -279.507075150     A.U. after   14 cycles
 E2 =    -0.9480920657D+00 EUMP2 =    -0.28045516721593D+03
 E2 =    -0.9480920657D+00 EUMP2 =    -0.28045516721593D+03

 The electronic state is 1-A'.
 Alpha  occ. eigenvalues --  -20.71988 -20.68744 -20.66713 -15.82585  -1.64633
 Alpha  occ. eigenvalues --   -1.50932  -1.29221  -0.96104  -0.83693  -0.75981
 Alpha  occ. eigenvalues --   -0.74173  -0.63565  -0.62158  -0.61964  -0.50514
 Alpha  occ. eigenvalues --   -0.49543
 Alpha virt. eigenvalues --    0.03521   0.06020   0.09513   0.10050   0.11963
 Alpha virt. eigenvalues --    0.12285   0.14963   0.15320   0.17749   0.18016
 Alpha virt. eigenvalues --    0.18970   0.21107   0.21683   0.24637   0.24836

 Mulliken charges:
               1
     1  H    0.275858
     2  O   -0.272842
     3  O    0.041493
     4  N    0.151698
     5  O   -0.196207
 Sum of Mulliken charges =  -0.00000

 Dipole moment (field-independent basis, Debye):
    X=              0.0728    Y=             -1.0775    Z=              0.0000  Tot=              1.0799
 Quadrupole moment (field-independent basis, Debye-Ang):
   XX=            -23.3787   YY=            -22.9618   ZZ=            -21.9172
   XY=             -1.9467   XZ=              0.0000   YZ=              0.0000

  Exact polarizability:  30.717   4.210  29.863   0.000   0.000  17.585
 Approx polarizability:  24.317   0.609  27.615  -0.000  -0.000  15.497

                      1                      2                      3
                     A"                     A'                     A"
 Frequencies --    354.0176               398.9881               524.5941
 Red. masses --      1.5652                 7.0423                 2.8809
 Frc consts  --      0.1156                 0.6605                 0.4671
 IR Inten    --     62.3017                 7.9175                25.6181

                      4                      5                      6
                     A'                     A'                     A'
 Frequencies --    714.5881               857.2785               987.3855
 Red. masses --     13.3704                11.6986                10.3434
 Frc consts  --      4.0226                 5.0656                 5.9414
 IR Inten    --    220.5917                30.5412                12.0903

                      7                      8                      9
                     A'                     A'                     A'
 Frequencies --   1444.9315              1573.5012              3482.2756
 Red. masses --      1.3416                 5.6348                 1.0635
 Frc consts  --      1.6503                 8.2198                 7.5985
 IR Inten    --     79.5983               151.4842                43.3642

 - Thermochemistry -
 -------------------
 Temperature   298.150 Kelvin.  Pressure   1.00000 Atm.
 Atom     1 has atomic number  1 and mass   1.00783

 Molecular mass:    62.99564 amu.
 Principal axes and moments of inertia in atomic units:
                           1         2         3
     Eigenvalues --    83.80845 221.70589 305.51435
           X            0.78983  -0.61332   0.00000
           Y            0.61332   0.78983   0.00000
           Z            0.00000   0.00000   1.00000
 This molecule is an asymmetric top.
 Rotational symmetry number  1.
 Rotational temperatures (Kelvin)      1.03347     0.39067     0.28350
 Rotational constants (GHZ):          21.53412     8.14025     5.90722
 Zero-point vibrational energy      61832.3 (Joules/Mol)
                                   14.77828 (Kcal/Mol)
 Warning -- explicit consideration of   3 degrees of freedom as
           vibrations may cause significant error
 Vibrational temperatures:    509.35   574.05   754.77  1028.13  1233.43
          (Kelvin)           1420.63  2078.93  2263.92  5010.22

 Zero-point correction=                           0.023551 (Hartree/Particle)
 Thermal correction to Energy=                    0.027476
 Thermal correction to Enthalpy=                  0.028420
 Thermal correction to Gibbs Free Energy=        -0.002410
 Sum of electronic and zero-point Energies=           -280.431617
 Sum of electronic and thermal Energies=              -280.427691
 Sum of electronic and thermal Enthalpies=            -280.426747
 Sum of electronic and thermal Free Energies=         -280.457577

                     E (Thermal)             CV                S
                      KCal/Mol        Cal/Mol-Kelvin    Cal/Mol-Kelvin
 Total                   17.241             12.099             64.886
 Electronic               0.000              0.000              0.000
 Translational            0.889              2.981             38.341
 Rotational               0.889              2.981             23.255
 Vibrational             15.464              6.137              3.291
 Vibration     1          0.730              1.567              1.148
 Vibration     2          0.765              1.472              0.966
 Vibration     3          0.880              1.196              0.599

                       ! Non-Optimized Parameters !

 1\1\GINC-N2199\Freq\RMP2-FC\Aug-CC-pVTZ\H1N1O3\CGAVINH\06-Mar-2022\1\\
 #p freq mp2/aug-cc-pvtz density=current\\title\\0,1\H\O,1,r1\O,2,r2,1,
 a1\N,3,r3,2,a2,1,d1,0\O,4,r4,3,a3,2,d2,0\\r1=0.98537664\r2=1.41457656\
 r3=1.38110764\r4=1.19478846\a1=100.6355057\a2=113.13777052\a3=114.3339
 2022\d1=0.\d2=0.\\Version=ES64L-G16RevB.01\State=1-A'\HF=-279.5070752\
 MP2=-280.4551672\RMSD=4.212e-09\RMSF=2.092e-03\ZeroPoint=0.0235507\The
 rmal=0.0274758\Dipole=-0.1154942,0.,-0.4088826\DipoleDeriv=0.3170469,0
 .,0.0383492,0.,0.2974571,0.,-0.0283799,0.,0.2012221,-0.5276836,0.,0.29

 Normal termination of Gaussian 16 at Sun Mar  6 19:03:33 2022.
