 Gaussian 16, Revision B.01,
 Gaussian 16:  ES64L-G16RevB.01 20-Dec-2017

 ---------------------------------------
 #p freq mp2/aug-cc-pvtz density=current
 ---------------------------------------

 -----
 title
 -----
 Symbolic Z-matrix:
 Charge =  0 Multiplicity = 1

                         Standard orientation:
 ---------------------------------------------------------------------
 Center     Atomic      Atomic             Coordinates (Angstroms)
 Number     Number       Type             X           Y           Z
 ---------------------------------------------------------------------
      1          1           0        1.118956   -0.609792   -0.000000
      2          8           0        1.330989    0.352502    0.000000
      3          8           0       -0.000000    0.919162    0.000000
      4          7           0       -0.996818   -0.036774   -0.000000
      5          8           0       -0.598643   -1.163262   -0.000000
 ---------------------------------------------------------------------

 SCF Done:  E(RHF) =  -279.505025427     A.U. after   14 cycles
 E2 =    -0.9500445345D+00 EUMP2 =    -0.28045506996172D+03
 E2 =    -0.9500445345D+00 EUMP2 =    -0.28045506996172D+03

 The electronic state is 1-A'.
 Alpha  occ. eigenvalues --  -20.71969 -20.68695 -20.67017 -15.82627  -1.64129
 Alpha  occ. eigenvalues --   -1.49850  -1.29629  -0.95931  -0.83114  -0.75755
 Alpha  occ. eigenvalues --   -0.73728  -0.64019  -0.61638  -0.61406  -0.50398
 Alpha  occ. eigenvalues --   -0.50079
 Alpha virt. eigenvalues --    0.03483   0.06036   0.09506   0.10010   0.11987
 Alpha virt. eigenvalues --    0.12213   0.14793   0.15078   0.17758   0.18063
 Alpha virt. eigenvalues --    0.18990   0.21089   0.21651   0.23337   0.24633

 Mulliken charges:
               1
     1  H    0.281110
     2  O   -0.276554
     3  O    0.032505
     4  N    0.157638
     5  O   -0.194699
 Sum of Mulliken charges =  -0.00000

 Dipole moment (field-independent basis, Debye):
    X=              0.0175    Y=             -1.1190    Z=             -0.0000  Tot=              1.1192
 Quadrupole moment (field-independent basis, Debye-Ang):
   XX=            -23.3799   YY=            -22.9079   ZZ=            -21.9596
   XY=             -2.0178   XZ=             -0.0000   YZ=             -0.0000

  Exact polarizability:  31.271   4.037  29.853  -0.000   0.000  17.676
 Approx polarizability:  24.984   0.369  27.742   0.000   0.000  15.544

                      1                      2                      3
                     A"                     A'                     A"
 Frequencies --    352.9688               393.7549               521.6352
 Red. masses --      1.5408                 7.0874                 2.9690
 Frc consts  --      0.1131                 0.6474                 0.4760
 IR Inten    --     63.7116                 7.4997                25.1737

                      4                      5                      6
                     A'                     A'                     A'
 Frequencies --    705.0984               799.2772               950.8462
 Red. masses --     13.2565                13.3809                 9.0827
 Frc consts  --      3.8831                 5.0365                 4.8382
 IR Inten    --    207.9215                35.0664                13.6482

                      7                      8                      9
                     A'                     A'                     A'
 Frequencies --   1415.1685              1566.1481              3495.7721
 Red. masses --      1.2655                 7.6738                 1.0641
 Frc consts  --      1.4932                11.0898                 7.6615
 IR Inten    --     81.0702               148.2094                41.6180

 - Thermochemistry -
 -------------------
 Temperature   298.150 Kelvin.  Pressure   1.00000 Atm.
 Atom     1 has atomic number  1 and mass   1.00783

 Molecular mass:    62.99564 amu.
 Principal axes and moments of inertia in atomic units:
                           1         2         3
     Eigenvalues --    85.69302 224.12038 309.81339
           X            0.80672  -0.59093   0.00000
           Y            0.59093   0.80672   0.00000
           Z            0.00000  -0.00000   1.00000
 This molecule is an asymmetric top.
 Rotational symmetry number  1.
 Rotational temperatures (Kelvin)      1.01075     0.38646     0.27957
 Rotational constants (GHZ):          21.06054     8.05255     5.82525
 Zero-point vibrational energy      61013.6 (Joules/Mol)
                                   14.58259 (Kcal/Mol)
 Warning -- explicit consideration of   3 degrees of freedom as
           vibrations may cause significant error
 Vibrational temperatures:    507.84   566.53   750.52  1014.48  1149.98
          (Kelvin)           1368.06  2036.11  2253.34  5029.64

 Zero-point correction=                           0.023239 (Hartree/Particle)
 Thermal correction to Energy=                    0.027198
 Thermal correction to Enthalpy=                  0.028142
 Thermal correction to Gibbs Free Energy=        -0.002758
 Sum of electronic and zero-point Energies=           -280.431831
 Sum of electronic and thermal Energies=              -280.427872
 Sum of electronic and thermal Enthalpies=            -280.426928
 Sum of electronic and thermal Free Energies=         -280.457828

                     E (Thermal)             CV                S
                      KCal/Mol        Cal/Mol-Kelvin    Cal/Mol-Kelvin
 Total                   17.067             12.282             65.035
 Electronic               0.000              0.000              0.000
 Translational            0.889              2.981             38.341
 Rotational               0.889              2.981             23.302
 Vibrational             15.290              6.320              3.393
 Vibration     1          0.729              1.569              1.153
 Vibration     2          0.761              1.484              0.986
 Vibration     3          0.877              1.202              0.606

                       ! Non-Optimized Parameters !

 1\1\GINC-N2109\Freq\RMP2-FC\Aug-CC-pVTZ\H1N1O3\CGAVINH\06-Mar-2022\1\\
 #p freq mp2/aug-cc-pvtz density=current\\title\\0,1\H\O,1,r1\O,2,r2,1,
 a1\N,3,r3,2,a2,1,d1,0\O,4,r4,3,a3,2,d2,0\\r1=0.98537664\r2=1.44659402\
 r3=1.38110764\r4=1.19478846\a1=100.6355057\a2=113.13777052\a3=114.3339
 2022\d1=0.\d2=0.\\Version=ES64L-G16RevB.01\State=1-A'\HF=-279.5050254\
 MP2=-280.45507\RMSD=4.804e-09\RMSF=2.940e-03\ZeroPoint=0.0232388\Therm
 al=0.0271979\Dipole=-0.1014385,0.,-0.4284649\DipoleDeriv=0.3167061,0.,
 0.0371476,0.,0.2989588,0.,-0.0181496,0.,0.1973697,-0.5322601,0.,0.2628

 Normal termination of Gaussian 16 at Sun Mar  6 18:59:49 2022.
