 Gaussian 16, Revision B.01,
 Gaussian 16:  ES64L-G16RevB.01 20-Dec-2017

 -------------------------------------
 #p SP mp2/aug-cc-pvtz density=current
 -------------------------------------

 -----
 title
 -----
 Symbolic Z-matrix:
 Charge =  0 Multiplicity = 1

                         Standard orientation:
 ---------------------------------------------------------------------
 Center     Atomic      Atomic             Coordinates (Angstroms)
 Number     Number       Type             X           Y           Z
 ---------------------------------------------------------------------
      1          1           0        1.547966    1.676537    0.000000
      2          8           0        1.454061    0.723334    0.000000
      3          8           0        0.000000    0.673356    0.000000
      4          7           0       -0.261559   -0.761788   -0.000000
      5          8           0       -1.418692   -0.939693   -0.000000
 ---------------------------------------------------------------------

 SCF Done:  E(RHF) =  -279.502103227     A.U. after   14 cycles
 E2 =    -0.9445147113D+00 EUMP2 =    -0.28044661793832D+03

 The electronic state is 1-A'.
 Alpha  occ. eigenvalues --  -20.69119 -20.68451 -20.65910 -15.81307  -1.62429
 Alpha  occ. eigenvalues --   -1.49715  -1.25662  -0.94833  -0.77374  -0.76007
 Alpha  occ. eigenvalues --   -0.71206  -0.68106  -0.62079  -0.58996  -0.48561
 Alpha  occ. eigenvalues --   -0.47281
 Alpha virt. eigenvalues --    0.02984   0.07150   0.08589   0.10169   0.13387
 Alpha virt. eigenvalues --    0.13393   0.14453   0.15496   0.17809   0.19414
 Alpha virt. eigenvalues --    0.19977   0.20637   0.22078   0.23511   0.23727

 Mulliken charges:
               1
     1  H    0.240697
     2  O   -0.192048
     3  O   -0.147880
     4  N    0.292498
     5  O   -0.193267
 Sum of Mulliken charges =  -0.00000

 Dipole moment (field-independent basis, Debye):
    X=              0.5023    Y=              1.3465    Z=              0.0000  Tot=              1.4371
 Quadrupole moment (field-independent basis, Debye-Ang):
   XX=            -22.4640   YY=            -18.6589   ZZ=            -21.9962
   XY=              3.2339   XZ=              0.0000   YZ=             -0.0000

 Normal termination of Gaussian 16 at Mon Feb 14 22:09:45 2022.
