 Gaussian 16, Revision B.01,
 Gaussian 16:  ES64L-G16RevB.01 20-Dec-2017

 -------------------------------------
 #p SP mp2/aug-cc-pvtz density=current
 -------------------------------------

 -----
 title
 -----
 Symbolic Z-matrix:
 Charge =  0 Multiplicity = 1

                         Standard orientation:
 ---------------------------------------------------------------------
 Center     Atomic      Atomic             Coordinates (Angstroms)
 Number     Number       Type             X           Y           Z
 ---------------------------------------------------------------------
      1          1           0        1.581781    1.681450   -0.000000
      2          8           0        1.454134    0.720919   -0.000000
      3          8           0       -0.000000    0.673122    0.000000
      4          7           0       -0.263711   -0.761628    0.000000
      5          8           0       -1.421109   -0.937798    0.000000
 ---------------------------------------------------------------------

 SCF Done:  E(RHF) =  -279.501808520     A.U. after   14 cycles
 E2 =    -0.9448092876D+00 EUMP2 =    -0.28044661780757D+03

 The electronic state is 1-A'.
 Alpha  occ. eigenvalues --  -20.69114 -20.68436 -20.65918 -15.81290  -1.62398
 Alpha  occ. eigenvalues --   -1.49462  -1.25467  -0.94801  -0.77192  -0.76037
 Alpha  occ. eigenvalues --   -0.71161  -0.67982  -0.62013  -0.58765  -0.48499
 Alpha  occ. eigenvalues --   -0.47250
 Alpha virt. eigenvalues --    0.02943   0.07173   0.08595   0.10178   0.13377
 Alpha virt. eigenvalues --    0.13405   0.14410   0.15444   0.17832   0.19436
 Alpha virt. eigenvalues --    0.19997   0.20627   0.22089   0.23541   0.23740

 Mulliken charges:
               1
     1  H    0.247918
     2  O   -0.201714
     3  O   -0.145659
     4  N    0.292495
     5  O   -0.193040
 Sum of Mulliken charges =  -0.00000

 Dipole moment (field-independent basis, Debye):
    X=              0.5504    Y=              1.3622    Z=             -0.0000  Tot=              1.4692
 Quadrupole moment (field-independent basis, Debye-Ang):
   XX=            -22.3100   YY=            -18.6409   ZZ=            -22.0135
   XY=              3.3636   XZ=              0.0000   YZ=             -0.0000

 Normal termination of Gaussian 16 at Mon Feb 14 22:11:55 2022.
