 Gaussian 16, Revision B.01,
 Gaussian 16:  ES64L-G16RevB.01 20-Dec-2017

 -------------------------------------
 #p SP mp2/aug-cc-pvtz density=current
 -------------------------------------

 -----
 title
 -----
 Symbolic Z-matrix:
 Charge =  0 Multiplicity = 1

                         Standard orientation:
 ---------------------------------------------------------------------
 Center     Atomic      Atomic             Coordinates (Angstroms)
 Number     Number       Type             X           Y           Z
 ---------------------------------------------------------------------
      1          1           0        1.517428    1.722362    0.000000
      2          8           0        1.451862    0.755607    0.000000
      3          8           0       -0.000000    0.661337    0.000000
      4          7           0       -0.258551   -0.774352   -0.000000
      5          8           0       -1.415308   -0.954682   -0.000000
 ---------------------------------------------------------------------

 SCF Done:  E(RHF) =  -279.501685266     A.U. after   14 cycles
 E2 =    -0.9449368849D+00 EUMP2 =    -0.28044662215040D+03

 The electronic state is 1-A'.
 Alpha  occ. eigenvalues --  -20.69039 -20.68467 -20.66053 -15.81334  -1.62398
 Alpha  occ. eigenvalues --   -1.49528  -1.25517  -0.94777  -0.77156  -0.75983
 Alpha  occ. eigenvalues --   -0.71155  -0.68177  -0.62088  -0.58820  -0.48508
 Alpha  occ. eigenvalues --   -0.47217
 Alpha virt. eigenvalues --    0.02963   0.07148   0.08597   0.10215   0.13376
 Alpha virt. eigenvalues --    0.13378   0.14387   0.15397   0.17832   0.19433
 Alpha virt. eigenvalues --    0.19998   0.20609   0.22065   0.23520   0.23725

 Mulliken charges:
               1
     1  H    0.252433
     2  O   -0.204873
     3  O   -0.144795
     4  N    0.288918
     5  O   -0.191683
 Sum of Mulliken charges =  -0.00000

 Dipole moment (field-independent basis, Debye):
    X=              0.4667    Y=              1.3726    Z=              0.0000  Tot=              1.4498
 Quadrupole moment (field-independent basis, Debye-Ang):
   XX=            -22.6403   YY=            -18.4510   ZZ=            -22.0135
   XY=              3.1958   XZ=             -0.0000   YZ=             -0.0000

 Normal termination of Gaussian 16 at Mon Feb 14 22:12:31 2022.
