 Gaussian 16, Revision B.01,
 Gaussian 16:  ES64L-G16RevB.01 20-Dec-2017

 -------------------------------------
 #p SP mp2/aug-cc-pvtz density=current
 -------------------------------------

 -----
 title
 -----
 Symbolic Z-matrix:
 Charge =  0 Multiplicity = 1

                         Standard orientation:
 ---------------------------------------------------------------------
 Center     Atomic      Atomic             Coordinates (Angstroms)
 Number     Number       Type             X           Y           Z
 ---------------------------------------------------------------------
      1          1           0        2.248567    0.434137   -0.021570
      2          8           0        1.598221   -0.284152   -0.016704
      3          8           0        0.400516    0.541094    0.018805
      4          7           0       -0.663899   -0.456386    0.028972
      5          8           0       -1.698897    0.088129   -0.024755
 ---------------------------------------------------------------------

 SCF Done:  E(RHF) =  -279.501612684     A.U. after   14 cycles
 E2 =    -0.9450083204D+00 EUMP2 =    -0.28044662100399D+03

 The electronic state is 1-A.
 Alpha  occ. eigenvalues --  -20.69079 -20.68436 -20.65999 -15.81279  -1.62404
 Alpha  occ. eigenvalues --   -1.49572  -1.25440  -0.94806  -0.77277  -0.75917
 Alpha  occ. eigenvalues --   -0.71198  -0.67917  -0.62052  -0.58938  -0.48522
 Alpha  occ. eigenvalues --   -0.47249
 Alpha virt. eigenvalues --    0.02963   0.07159   0.08599   0.10172   0.13265
 Alpha virt. eigenvalues --    0.13519   0.14409   0.15454   0.17814   0.19414
 Alpha virt. eigenvalues --    0.19963   0.20653   0.22088   0.23473   0.23821

 Mulliken charges:
               1
     1  H    0.250324
     2  O   -0.201564
     3  O   -0.147422
     4  N    0.291673
     5  O   -0.193012
 Sum of Mulliken charges =  -0.00000

 Dipole moment (field-independent basis, Debye):
    X=              1.2165    Y=              0.7908    Z=             -0.0079  Tot=              1.4510
 Quadrupole moment (field-independent basis, Debye-Ang):
   XX=            -17.9871   YY=            -23.0931   ZZ=            -22.0135
   XY=              2.7894   XZ=             -0.1162   YZ=              0.0453

 Normal termination of Gaussian 16 at Mon Feb 14 22:14:46 2022.
