 Gaussian 16, Revision B.01,
 Gaussian 16:  ES64L-G16RevB.01 20-Dec-2017

 -------------------------------------
 #p SP mp2/aug-cc-pvtz density=current
 -------------------------------------

 -----
 title
 -----
 Symbolic Z-matrix:
 Charge =  0 Multiplicity = 1

                         Standard orientation:
 ---------------------------------------------------------------------
 Center     Atomic      Atomic             Coordinates (Angstroms)
 Number     Number       Type             X           Y           Z
 ---------------------------------------------------------------------
      1          1           0        1.550654    1.691131    0.000000
      2          8           0        1.454137    0.726974    0.000000
      3          8           0       -0.000000    0.679284    0.000000
      4          7           0       -0.263817   -0.755447   -0.000000
      5          8           0       -1.417130   -0.956633   -0.000000
 ---------------------------------------------------------------------

 SCF Done:  E(RHF) =  -279.501479384     A.U. after   14 cycles
 E2 =    -0.9451417097D+00 EUMP2 =    -0.28044662109377D+03

 The electronic state is 1-A'.
 Alpha  occ. eigenvalues --  -20.69140 -20.68473 -20.66076 -15.81239  -1.62302
 Alpha  occ. eigenvalues --   -1.49665  -1.25540  -0.94775  -0.77344  -0.75877
 Alpha  occ. eigenvalues --   -0.71156  -0.67969  -0.62094  -0.59049  -0.48580
 Alpha  occ. eigenvalues --   -0.47096
 Alpha virt. eigenvalues --    0.02953   0.07220   0.08570   0.10173   0.13402
 Alpha virt. eigenvalues --    0.13403   0.14403   0.15461   0.17813   0.19422
 Alpha virt. eigenvalues --    0.19976   0.20612   0.22081   0.23420   0.23722

 Mulliken charges:
               1
     1  H    0.250297
     2  O   -0.198925
     3  O   -0.148866
     4  N    0.290306
     5  O   -0.192811
 Sum of Mulliken charges =  -0.00000

 Dipole moment (field-independent basis, Debye):
    X=              0.5043    Y=              1.3766    Z=              0.0000  Tot=              1.4661
 Quadrupole moment (field-independent basis, Debye-Ang):
   XX=            -22.4293   YY=            -18.6239   ZZ=            -22.0166
   XY=              3.2864   XZ=             -0.0000   YZ=              0.0000

 Normal termination of Gaussian 16 at Mon Feb 14 22:13:08 2022.
