 Gaussian 16, Revision B.01,
 Gaussian 16:  ES64L-G16RevB.01 20-Dec-2017

 -------------------------------------
 #p SP mp2/aug-cc-pvtz density=current
 -------------------------------------

 -----
 title
 -----
 Symbolic Z-matrix:
 Charge =  0 Multiplicity = 1

                         Standard orientation:
 ---------------------------------------------------------------------
 Center     Atomic      Atomic             Coordinates (Angstroms)
 Number     Number       Type             X           Y           Z
 ---------------------------------------------------------------------
      1          1           0        1.550258    1.697895    0.000000
      2          8           0        1.454066    0.722492    0.000000
      3          8           0        0.000000    0.672662    0.000000
      4          7           0       -0.261705   -0.762455   -0.000000
      5          8           0       -1.418856   -0.940243   -0.000000
 ---------------------------------------------------------------------

 SCF Done:  E(RHF) =  -279.501042526     A.U. after   14 cycles
 E2 =    -0.9455811334D+00 EUMP2 =    -0.28044662365916D+03

 The electronic state is 1-A'.
 Alpha  occ. eigenvalues --  -20.69059 -20.68408 -20.66084 -15.81260  -1.62377
 Alpha  occ. eigenvalues --   -1.49440  -1.25226  -0.94781  -0.77191  -0.75827
 Alpha  occ. eigenvalues --   -0.71153  -0.67764  -0.62013  -0.58889  -0.48485
 Alpha  occ. eigenvalues --   -0.47220
 Alpha virt. eigenvalues --    0.02941   0.07184   0.08599   0.10175   0.13396
 Alpha virt. eigenvalues --    0.13404   0.14359   0.15412   0.17841   0.19420
 Alpha virt. eigenvalues --    0.19984   0.20636   0.22085   0.23573   0.23748

 Mulliken charges:
               1
     1  H    0.259140
     2  O   -0.210484
     3  O   -0.146412
     4  N    0.290992
     5  O   -0.193236
 Sum of Mulliken charges =   0.00000

 Dipole moment (field-independent basis, Debye):
    X=              0.5141    Y=              1.3750    Z=              0.0000  Tot=              1.4679
 Quadrupole moment (field-independent basis, Debye-Ang):
   XX=            -22.4740   YY=            -18.5722   ZZ=            -22.0244
   XY=              3.2780   XZ=             -0.0000   YZ=              0.0000

 Normal termination of Gaussian 16 at Mon Feb 14 22:09:27 2022.
