 Gaussian 16, Revision B.01,
 Gaussian 16:  ES64L-G16RevB.01 20-Dec-2017

 -------------------------------------
 #p SP mp2/aug-cc-pvtz density=current
 -------------------------------------

 -----
 title
 -----
 Symbolic Z-matrix:
 Charge =  0 Multiplicity = 1

                         Standard orientation:
 ---------------------------------------------------------------------
 Center     Atomic      Atomic             Coordinates (Angstroms)
 Number     Number       Type             X           Y           Z
 ---------------------------------------------------------------------
      1          1           0        1.578812    1.652043    0.000000
      2          8           0        1.454906    0.691022    0.000000
      3          8           0        0.000000    0.684719    0.000000
      4          7           0       -0.263912   -0.749994    0.000000
      5          8           0       -1.421334   -0.926002    0.000000
 ---------------------------------------------------------------------

 SCF Done:  E(RHF) =  -279.501413293     A.U. after   14 cycles
 E2 =    -0.9452060991D+00 EUMP2 =    -0.28044661939191D+03

 The electronic state is 1-A'.
 Alpha  occ. eigenvalues --  -20.69128 -20.68393 -20.65943 -15.81234  -1.62410
 Alpha  occ. eigenvalues --   -1.49622  -1.25360  -0.94841  -0.77408  -0.75850
 Alpha  occ. eigenvalues --   -0.71204  -0.67679  -0.62000  -0.59062  -0.48535
 Alpha  occ. eigenvalues --   -0.47283
 Alpha virt. eigenvalues --    0.02962   0.07187   0.08591   0.10128   0.13410
 Alpha virt. eigenvalues --    0.13414   0.14428   0.15504   0.17819   0.19397
 Alpha virt. eigenvalues --    0.19965   0.20640   0.22107   0.23553   0.23752

 Mulliken charges:
               1
     1  H    0.247881
     2  O   -0.197938
     3  O   -0.149766
     4  N    0.294499
     5  O   -0.194676
 Sum of Mulliken charges =  -0.00000

 Dipole moment (field-independent basis, Debye):
    X=              0.5484    Y=              1.3466    Z=             -0.0000  Tot=              1.4540
 Quadrupole moment (field-independent basis, Debye-Ang):
   XX=            -22.2988   YY=            -18.7810   ZZ=            -22.0072
   XY=              3.3035   XZ=              0.0000   YZ=             -0.0000

 Normal termination of Gaussian 16 at Mon Feb 14 22:12:49 2022.
