 Gaussian 16, Revision B.01,
 Gaussian 16:  ES64L-G16RevB.01 20-Dec-2017

 -------------------------------------
 #p SP mp2/aug-cc-pvtz density=current
 -------------------------------------

 -----
 title
 -----
 Symbolic Z-matrix:
 Charge =  0 Multiplicity = 1

                         Standard orientation:
 ---------------------------------------------------------------------
 Center     Atomic      Atomic             Coordinates (Angstroms)
 Number     Number       Type             X           Y           Z
 ---------------------------------------------------------------------
      1          1           0        1.545805    1.692589    0.000000
      2          8           0        1.453893    0.727982    0.000000
      3          8           0        0.000000    0.673349    0.000000
      4          7           0       -0.256963   -0.762625   -0.000000
      5          8           0       -1.422276   -0.945609   -0.000000
 ---------------------------------------------------------------------

 SCF Done:  E(RHF) =  -279.500058362     A.U. after   14 cycles
 E2 =    -0.9465715324D+00 EUMP2 =    -0.28044662989402D+03

 The electronic state is 1-A'.
 Alpha  occ. eigenvalues --  -20.69294 -20.68394 -20.66110 -15.81412  -1.61702
 Alpha  occ. eigenvalues --   -1.49552  -1.25529  -0.94929  -0.77182  -0.75686
 Alpha  occ. eigenvalues --   -0.71012  -0.67826  -0.61859  -0.58999  -0.48594
 Alpha  occ. eigenvalues --   -0.47421
 Alpha virt. eigenvalues --    0.02939   0.06895   0.08608   0.10172   0.13383
 Alpha virt. eigenvalues --    0.13412   0.14389   0.15432   0.17811   0.19427
 Alpha virt. eigenvalues --    0.19949   0.20635   0.22051   0.23469   0.23732

 Mulliken charges:
               1
     1  H    0.250562
     2  O   -0.200882
     3  O   -0.145227
     4  N    0.290738
     5  O   -0.195192
 Sum of Mulliken charges =  -0.00000

 Dipole moment (field-independent basis, Debye):
    X=              0.5410    Y=              1.3995    Z=              0.0000  Tot=              1.5005
 Quadrupole moment (field-independent basis, Debye-Ang):
   XX=            -22.5146   YY=            -18.6157   ZZ=            -22.0251
   XY=              3.2266   XZ=             -0.0000   YZ=              0.0000

 Normal termination of Gaussian 16 at Mon Feb 14 22:11:18 2022.
