 Gaussian 16, Revision B.01,
 Gaussian 16:  ES64L-G16RevB.01 20-Dec-2017

 -------------------------------------
 #p SP mp2/aug-cc-pvtz density=current
 -------------------------------------

 -----
 title
 -----
 Symbolic Z-matrix:
 Charge =  0 Multiplicity = 1

                         Standard orientation:
 ---------------------------------------------------------------------
 Center     Atomic      Atomic             Coordinates (Angstroms)
 Number     Number       Type             X           Y           Z
 ---------------------------------------------------------------------
      1          1           0        1.527658    1.696484   -0.000000
      2          8           0        1.438674    0.731603   -0.000000
      3          8           0        0.000000    0.673168    0.000000
      4          7           0       -0.252603   -0.763580   -0.000000
      5          8           0       -1.408604   -0.948698    0.000000
 ---------------------------------------------------------------------

 SCF Done:  E(RHF) =  -279.502799930     A.U. after   14 cycles
 E2 =    -0.9438245412D+00 EUMP2 =    -0.28044662447170D+03

 The electronic state is 1-A'.
 Alpha  occ. eigenvalues --  -20.69002 -20.68402 -20.65868 -15.81252  -1.62453
 Alpha  occ. eigenvalues --   -1.50183  -1.25170  -0.94828  -0.77443  -0.76042
 Alpha  occ. eigenvalues --   -0.71323  -0.67944  -0.62190  -0.59141  -0.48247
 Alpha  occ. eigenvalues --   -0.47214
 Alpha virt. eigenvalues --    0.02965   0.07169   0.08629   0.10178   0.13394
 Alpha virt. eigenvalues --    0.13461   0.14416   0.15460   0.17822   0.19403
 Alpha virt. eigenvalues --    0.19975   0.20649   0.22215   0.23750   0.24241

 Mulliken charges:
               1
     1  H    0.249409
     2  O   -0.199862
     3  O   -0.146203
     4  N    0.290410
     5  O   -0.193754
 Sum of Mulliken charges =  -0.00000

 Dipole moment (field-independent basis, Debye):
    X=              0.5054    Y=              1.3745    Z=              0.0000  Tot=              1.4645
 Quadrupole moment (field-independent basis, Debye-Ang):
   XX=            -22.5516   YY=            -18.5610   ZZ=            -21.9892
   XY=              3.2073   XZ=              0.0000   YZ=             -0.0000

 Normal termination of Gaussian 16 at Mon Feb 14 22:10:23 2022.
