 Gaussian 16, Revision B.01,
 Gaussian 16:  ES64L-G16RevB.01 20-Dec-2017

 -------------------------------------
 #p SP mp2/aug-cc-pvtz density=current
 -------------------------------------

 -----
 title
 -----
 Symbolic Z-matrix:
 Charge =  0 Multiplicity = 1

                         Standard orientation:
 ---------------------------------------------------------------------
 Center     Atomic      Atomic             Coordinates (Angstroms)
 Number     Number       Type             X           Y           Z
 ---------------------------------------------------------------------
      1          1           0        2.241958    0.426922    0.136680
      2          8           0        1.599193   -0.282771   -0.011986
      3          8           0        0.400231    0.541404   -0.015956
      4          7           0       -0.663165   -0.456967    0.006290
      5          8           0       -1.699399    0.087848    0.005354
 ---------------------------------------------------------------------

 SCF Done:  E(RHF) =  -279.501770777     A.U. after   16 cycles
 E2 =    -0.9450764623D+00 EUMP2 =    -0.28044684723894D+03

 The electronic state is 1-A.
 Alpha  occ. eigenvalues --  -20.69100 -20.68427 -20.66009 -15.81274  -1.62403
 Alpha  occ. eigenvalues --   -1.49581  -1.25443  -0.94808  -0.77259  -0.75939
 Alpha  occ. eigenvalues --   -0.71256  -0.67897  -0.62005  -0.58900  -0.48645
 Alpha  occ. eigenvalues --   -0.47192
 Alpha virt. eigenvalues --    0.02960   0.07165   0.08593   0.10174   0.13270
 Alpha virt. eigenvalues --    0.13486   0.14395   0.15446   0.17816   0.19412
 Alpha virt. eigenvalues --    0.19941   0.20655   0.22081   0.23538   0.23729

 Mulliken charges:
               1
     1  H    0.250112
     2  O   -0.201648
     3  O   -0.147063
     4  N    0.291932
     5  O   -0.193332
 Sum of Mulliken charges =  -0.00000

 Dipole moment (field-independent basis, Debye):
    X=              1.2068    Y=              0.7764    Z=              0.2594  Tot=              1.4583
 Quadrupole moment (field-independent basis, Debye-Ang):
   XX=            -18.0605   YY=            -23.1137   ZZ=            -21.9570
   XY=              2.7436   XZ=              0.6837   YZ=              0.2093

 Normal termination of Gaussian 16 at Mon Feb 14 22:13:53 2022.
