 Gaussian 16, Revision B.01,
 Gaussian 16:  ES64L-G16RevB.01 20-Dec-2017

 -------------------------------------
 #p SP mp2/aug-cc-pvtz density=current
 -------------------------------------

 -----
 title
 -----
 Symbolic Z-matrix:
 Charge =  0 Multiplicity = 1

                         Standard orientation:
 ---------------------------------------------------------------------
 Center     Atomic      Atomic             Coordinates (Angstroms)
 Number     Number       Type             X           Y           Z
 ---------------------------------------------------------------------
      1          1           0        1.552109    1.671868    0.000000
      2          8           0        1.454205    0.707851    0.000000
      3          8           0        0.000000    0.662253    0.000000
      4          7           0       -0.261629   -0.749157   -0.000000
      5          8           0       -1.419293   -0.923575   -0.000000
 ---------------------------------------------------------------------

 SCF Done:  E(RHF) =  -279.503789915     A.U. after   14 cycles
 E2 =    -0.9428276984D+00 EUMP2 =    -0.28044661761334D+03

 The electronic state is 1-A'.
 Alpha  occ. eigenvalues --  -20.69483 -20.67872 -20.66283 -15.80910  -1.62566
 Alpha  occ. eigenvalues --   -1.49889  -1.26147  -0.94640  -0.77470  -0.76204
 Alpha  occ. eigenvalues --   -0.71601  -0.67817  -0.61922  -0.59062  -0.48756
 Alpha  occ. eigenvalues --   -0.47334
 Alpha virt. eigenvalues --    0.02899   0.07469   0.08635   0.10197   0.13375
 Alpha virt. eigenvalues --    0.13406   0.14361   0.15407   0.17774   0.19420
 Alpha virt. eigenvalues --    0.19993   0.20918   0.22010   0.23438   0.23767

 Mulliken charges:
               1
     1  H    0.250446
     2  O   -0.199997
     3  O   -0.131783
     4  N    0.284750
     5  O   -0.203416
 Sum of Mulliken charges =  -0.00000

 Dipole moment (field-independent basis, Debye):
    X=              0.6150    Y=              1.4938    Z=              0.0000  Tot=              1.6154
 Quadrupole moment (field-independent basis, Debye-Ang):
   XX=            -22.5094   YY=            -18.7141   ZZ=            -21.9767
   XY=              3.2118   XZ=              0.0000   YZ=             -0.0000

 Normal termination of Gaussian 16 at Mon Feb 14 22:10:59 2022.
