 Gaussian 16, Revision B.01,
 Gaussian 16:  ES64L-G16RevB.01 20-Dec-2017

 -------------------------------------
 #p SP mp2/aug-cc-pvtz density=current
 -------------------------------------

 -----
 title
 -----
 Symbolic Z-matrix:
 Charge =  0 Multiplicity = 1

                         Standard orientation:
 ---------------------------------------------------------------------
 Center     Atomic      Atomic             Coordinates (Angstroms)
 Number     Number       Type             X           Y           Z
 ---------------------------------------------------------------------
      1          1           0        1.570514    1.677741   -0.000000
      2          8           0        1.469401    0.714055   -0.000000
      3          8           0        0.000000    0.672877    0.000000
      4          7           0       -0.270655   -0.760579    0.000000
      5          8           0       -1.428892   -0.931143    0.000000
 ---------------------------------------------------------------------

 SCF Done:  E(RHF) =  -279.500329932     A.U. after   14 cycles
 E2 =    -0.9462871756D+00 EUMP2 =    -0.28044661710759D+03

 The electronic state is 1-A'.
 Alpha  occ. eigenvalues --  -20.69173 -20.68455 -20.66127 -15.81313  -1.62362
 Alpha  occ. eigenvalues --   -1.48985  -1.25707  -0.94786  -0.77124  -0.75799
 Alpha  occ. eigenvalues --   -0.71048  -0.67937  -0.61902  -0.58731  -0.48789
 Alpha  occ. eigenvalues --   -0.47283
 Alpha virt. eigenvalues --    0.02960   0.07165   0.08555   0.10165   0.13316
 Alpha virt. eigenvalues --    0.13397   0.14400   0.15447   0.17829   0.19431
 Alpha virt. eigenvalues --    0.19987   0.20618   0.21791   0.23018   0.23726

 Mulliken charges:
               1
     1  H    0.251119
     2  O   -0.203397
     3  O   -0.147913
     4  N    0.292956
     5  O   -0.192765
 Sum of Mulliken charges =  -0.00000

 Dipole moment (field-independent basis, Debye):
    X=              0.5110    Y=              1.3474    Z=             -0.0000  Tot=              1.4411
 Quadrupole moment (field-independent basis, Debye-Ang):
   XX=            -22.3862   YY=            -18.6711   ZZ=            -22.0312
   XY=              3.3029   XZ=              0.0000   YZ=             -0.0000

 Normal termination of Gaussian 16 at Mon Feb 14 22:10:03 2022.
