 Gaussian 16, Revision B.01,
 Gaussian 16:  ES64L-G16RevB.01 20-Dec-2017

 -------------------------------------
 #p SP mp2/aug-cc-pvtz density=current
 -------------------------------------

 -----
 title
 -----
 Symbolic Z-matrix:
 Charge =  0 Multiplicity = 1

                         Standard orientation:
 ---------------------------------------------------------------------
 Center     Atomic      Atomic             Coordinates (Angstroms)
 Number     Number       Type             X           Y           Z
 ---------------------------------------------------------------------
      1          1           0        1.588518    1.640028   -0.000000
      2          8           0        1.454895    0.680310   -0.000000
      3          8           0       -0.000000    0.688726   -0.000000
      4          7           0       -0.264514   -0.745876    0.000000
      5          8           0       -1.422010   -0.921398    0.000000
 ---------------------------------------------------------------------

 SCF Done:  E(RHF) =  -279.501252395     A.U. after   14 cycles
 E2 =    -0.9452720425D+00 EUMP2 =    -0.28044652443712D+03

 The electronic state is 1-A'.
 Alpha  occ. eigenvalues --  -20.69139 -20.68381 -20.65924 -15.81217  -1.62412
 Alpha  occ. eigenvalues --   -1.49638  -1.25331  -0.94854  -0.77454  -0.75826
 Alpha  occ. eigenvalues --   -0.71212  -0.67587  -0.61984  -0.59102  -0.48539
 Alpha  occ. eigenvalues --   -0.47295
 Alpha virt. eigenvalues --    0.02962   0.07194   0.08590   0.10113   0.13414
 Alpha virt. eigenvalues --    0.13420   0.14434   0.15519   0.17816   0.19389
 Alpha virt. eigenvalues --    0.19960   0.20636   0.22117   0.23555   0.23757

 Mulliken charges:
               1
     1  H    0.247022
     2  O   -0.196608
     3  O   -0.150708
     4  N    0.295423
     5  O   -0.195129
 Sum of Mulliken charges =  -0.00000

 Dipole moment (field-independent basis, Debye):
    X=              0.5618    Y=              1.3413    Z=             -0.0000  Tot=              1.4542
 Quadrupole moment (field-independent basis, Debye-Ang):
   XX=            -22.2411   YY=            -18.8374   ZZ=            -22.0061
   XY=              3.3169   XZ=             -0.0000   YZ=              0.0000

 Normal termination of Gaussian 16 at Mon Feb 14 22:13:27 2022.
