 Gaussian 16, Revision B.01,
 Gaussian 16:  ES64L-G16RevB.01 20-Dec-2017

 -------------------------------------
 #p SP mp2/aug-cc-pvtz density=current
 -------------------------------------

 -----
 title
 -----
 Symbolic Z-matrix:
 Charge =  0 Multiplicity = 1

                         Standard orientation:
 ---------------------------------------------------------------------
 Center     Atomic      Atomic             Coordinates (Angstroms)
 Number     Number       Type             X           Y           Z
 ---------------------------------------------------------------------
      1          1           0        1.547319    1.681500    0.000000
      2          8           0        1.453973    0.717031    0.000000
      3          8           0        0.000000    0.664560   -0.000000
      4          7           0       -0.259099   -0.771030   -0.000000
      5          8           0       -1.420676   -0.917128   -0.000000
 ---------------------------------------------------------------------

 SCF Done:  E(RHF) =  -279.501571165     A.U. after   14 cycles
 E2 =    -0.9449566836D+00 EUMP2 =    -0.28044652784849D+03

 The electronic state is 1-A'.
 Alpha  occ. eigenvalues --  -20.69018 -20.68370 -20.65888 -15.81340  -1.62545
 Alpha  occ. eigenvalues --   -1.49449  -1.25303  -0.94852  -0.77185  -0.75977
 Alpha  occ. eigenvalues --   -0.71213  -0.67893  -0.61978  -0.58793  -0.48442
 Alpha  occ. eigenvalues --   -0.47445
 Alpha virt. eigenvalues --    0.02976   0.07096   0.08626   0.10168   0.13386
 Alpha virt. eigenvalues --    0.13386   0.14417   0.15441   0.17844   0.19409
 Alpha virt. eigenvalues --    0.19988   0.20666   0.22078   0.23709   0.23761

 Mulliken charges:
               1
     1  H    0.250147
     2  O   -0.205254
     3  O   -0.144715
     4  N    0.293682
     5  O   -0.193861
 Sum of Mulliken charges =  -0.00000

 Dipole moment (field-independent basis, Debye):
    X=              0.5121    Y=              1.3381    Z=              0.0000  Tot=              1.4327
 Quadrupole moment (field-independent basis, Debye-Ang):
   XX=            -22.5224   YY=            -18.6053   ZZ=            -22.0020
   XY=              3.2147   XZ=             -0.0000   YZ=              0.0000

 Normal termination of Gaussian 16 at Mon Feb 14 22:14:04 2022.
