 Gaussian 16, Revision B.01,
 Gaussian 16:  ES64L-G16RevB.01 20-Dec-2017

 -------------------------------------
 #p SP mp2/aug-cc-pvtz density=current
 -------------------------------------

 -----
 title
 -----
 Symbolic Z-matrix:
 Charge =  0 Multiplicity = 1

                         Standard orientation:
 ---------------------------------------------------------------------
 Center     Atomic      Atomic             Coordinates (Angstroms)
 Number     Number       Type             X           Y           Z
 ---------------------------------------------------------------------
      1          1           0        1.592909    1.679238    0.000000
      2          8           0        1.454157    0.720248    0.000000
      3          8           0        0.000000    0.673168    0.000000
      4          7           0       -0.264419   -0.761452   -0.000000
      5          8           0       -1.421904   -0.937050   -0.000000
 ---------------------------------------------------------------------

 SCF Done:  E(RHF) =  -279.501790998     A.U. after   14 cycles
 E2 =    -0.9447356784D+00 EUMP2 =    -0.28044652667650D+03

 The electronic state is 1-A'.
 Alpha  occ. eigenvalues --  -20.69124 -20.68439 -20.65889 -15.81294  -1.62397
 Alpha  occ. eigenvalues --   -1.49424  -1.25475  -0.94801  -0.77164  -0.76076
 Alpha  occ. eigenvalues --   -0.71156  -0.67996  -0.62001  -0.58702  -0.48491
 Alpha  occ. eigenvalues --   -0.47250
 Alpha virt. eigenvalues --    0.02936   0.07174   0.08595   0.10180   0.13370
 Alpha virt. eigenvalues --    0.13408   0.14412   0.15441   0.17833   0.19442
 Alpha virt. eigenvalues --    0.20002   0.20623   0.22090   0.23538   0.23740

 Mulliken charges:
               1
     1  H    0.247185
     2  O   -0.201830
     3  O   -0.145149
     4  N    0.292751
     5  O   -0.192957
 Sum of Mulliken charges =  -0.00000

 Dipole moment (field-independent basis, Debye):
    X=              0.5646    Y=              1.3621    Z=              0.0000  Tot=              1.4745
 Quadrupole moment (field-independent basis, Debye-Ang):
   XX=            -22.2547   YY=            -18.6512   ZZ=            -22.0146
   XY=              3.3994   XZ=              0.0000   YZ=             -0.0000

 Normal termination of Gaussian 16 at Mon Feb 14 22:12:32 2022.
