 Gaussian 16, Revision B.01,
 Gaussian 16:  ES64L-G16RevB.01 20-Dec-2017

 -------------------------------------
 #p SP mp2/aug-cc-pvtz density=current
 -------------------------------------

 -----
 title
 -----
 Symbolic Z-matrix:
 Charge =  0 Multiplicity = 1

                         Standard orientation:
 ---------------------------------------------------------------------
 Center     Atomic      Atomic             Coordinates (Angstroms)
 Number     Number       Type             X           Y           Z
 ---------------------------------------------------------------------
      1          1           0        1.505104    1.693276    0.000000
      2          8           0        1.453963    0.725651    0.000000
      3          8           0        0.000000    0.672910    0.000000
      4          7           0       -0.258831   -0.762729    0.000000
      5          8           0       -1.415624   -0.942833    0.000000
 ---------------------------------------------------------------------

 SCF Done:  E(RHF) =  -279.501114311     A.U. after   14 cycles
 E2 =    -0.9454184573D+00 EUMP2 =    -0.28044653276811D+03

 The electronic state is 1-A'.
 Alpha  occ. eigenvalues --  -20.69062 -20.68427 -20.66091 -15.81279  -1.62416
 Alpha  occ. eigenvalues --   -1.49732  -1.25402  -0.94822  -0.77408  -0.75757
 Alpha  occ. eigenvalues --   -0.71209  -0.67864  -0.62090  -0.59171  -0.48554
 Alpha  occ. eigenvalues --   -0.47254
 Alpha virt. eigenvalues --    0.02991   0.07156   0.08592   0.10162   0.13382
 Alpha virt. eigenvalues --    0.13409   0.14414   0.15467   0.17818   0.19391
 Alpha virt. eigenvalues --    0.19958   0.20641   0.22067   0.23529   0.23735

 Mulliken charges:
               1
     1  H    0.253889
     2  O   -0.201987
     3  O   -0.149177
     4  N    0.290740
     5  O   -0.193465
 Sum of Mulliken charges =  -0.00000

 Dipole moment (field-independent basis, Debye):
    X=              0.4501    Y=              1.3552    Z=             -0.0000  Tot=              1.4280
 Quadrupole moment (field-independent basis, Debye-Ang):
   XX=            -22.6751   YY=            -18.5934   ZZ=            -22.0061
   XY=              3.1059   XZ=             -0.0000   YZ=              0.0000

 Normal termination of Gaussian 16 at Mon Feb 14 22:12:50 2022.
