 Gaussian 16, Revision B.01,
 Gaussian 16:  ES64L-G16RevB.01 20-Dec-2017

 -------------------------------------
 #p SP mp2/aug-cc-pvtz density=current
 -------------------------------------

 -----
 title
 -----
 Symbolic Z-matrix:
 Charge =  0 Multiplicity = 1

                         Standard orientation:
 ---------------------------------------------------------------------
 Center     Atomic      Atomic             Coordinates (Angstroms)
 Number     Number       Type             X           Y           Z
 ---------------------------------------------------------------------
      1          1           0        1.506135    1.734356    0.000000
      2          8           0        1.450785    0.766962    0.000000
      3          8           0       -0.000000    0.657360    0.000000
      4          7           0       -0.257307   -0.778552   -0.000000
      5          8           0       -1.413908   -0.959884   -0.000000
 ---------------------------------------------------------------------

 SCF Done:  E(RHF) =  -279.501624169     A.U. after   14 cycles
 E2 =    -0.9449103315D+00 EUMP2 =    -0.28044653450059D+03

 The electronic state is 1-A'.
 Alpha  occ. eigenvalues --  -20.69020 -20.68479 -20.66071 -15.81351  -1.62397
 Alpha  occ. eigenvalues --   -1.49512  -1.25541  -0.94767  -0.77115  -0.76004
 Alpha  occ. eigenvalues --   -0.71147  -0.68255  -0.62102  -0.58777  -0.48502
 Alpha  occ. eigenvalues --   -0.47206
 Alpha virt. eigenvalues --    0.02963   0.07142   0.08598   0.10230   0.13370
 Alpha virt. eigenvalues --    0.13372   0.14380   0.15377   0.17834   0.19438
 Alpha virt. eigenvalues --    0.20004   0.20595   0.22061   0.23509   0.23720

 Mulliken charges:
               1
     1  H    0.253124
     2  O   -0.205911
     3  O   -0.144040
     4  N    0.287938
     5  O   -0.191112
 Sum of Mulliken charges =  -0.00000

 Dipole moment (field-independent basis, Debye):
    X=              0.4522    Y=              1.3761    Z=              0.0000  Tot=              1.4485
 Quadrupole moment (field-independent basis, Debye-Ang):
   XX=            -22.6989   YY=            -18.3949   ZZ=            -22.0146
   XY=              3.1722   XZ=              0.0000   YZ=             -0.0000

 Normal termination of Gaussian 16 at Mon Feb 14 22:13:08 2022.
