 Gaussian 16, Revision B.01,
 Gaussian 16:  ES64L-G16RevB.01 20-Dec-2017

 -------------------------------------
 #p SP mp2/aug-cc-pvtz density=current
 -------------------------------------

 -----
 title
 -----
 Symbolic Z-matrix:
 Charge =  0 Multiplicity = 1

                         Standard orientation:
 ---------------------------------------------------------------------
 Center     Atomic      Atomic             Coordinates (Angstroms)
 Number     Number       Type             X           Y           Z
 ---------------------------------------------------------------------
      1          1           0        1.550651    1.701543    0.000000
      2          8           0        1.454067    0.722348    0.000000
      3          8           0        0.000000    0.672543    0.000000
      4          7           0       -0.261730   -0.762569    0.000000
      5          8           0       -1.418884   -0.940337    0.000000
 ---------------------------------------------------------------------

 SCF Done:  E(RHF) =  -279.500772420     A.U. after   14 cycles
 E2 =    -0.9457640963D+00 EUMP2 =    -0.28044653651588D+03

 The electronic state is 1-A'.
 Alpha  occ. eigenvalues --  -20.69049 -20.68401 -20.66112 -15.81253  -1.62369
 Alpha  occ. eigenvalues --   -1.49395  -1.25153  -0.94772  -0.77162  -0.75795
 Alpha  occ. eigenvalues --   -0.71144  -0.67704  -0.62002  -0.58871  -0.48472
 Alpha  occ. eigenvalues --   -0.47209
 Alpha virt. eigenvalues --    0.02934   0.07190   0.08601   0.10176   0.13396
 Alpha virt. eigenvalues --    0.13407   0.14341   0.15399   0.17846   0.19421
 Alpha virt. eigenvalues --    0.19986   0.20636   0.22087   0.23583   0.23752

 Mulliken charges:
               1
     1  H    0.262011
     2  O   -0.213370
     3  O   -0.146148
     4  N    0.290736
     5  O   -0.193229
 Sum of Mulliken charges =  -0.00000

 Dipole moment (field-independent basis, Debye):
    X=              0.5161    Y=              1.3798    Z=             -0.0000  Tot=              1.4732
 Quadrupole moment (field-independent basis, Debye-Ang):
   XX=            -22.4757   YY=            -18.5572   ZZ=            -22.0291
   XY=              3.2855   XZ=             -0.0000   YZ=              0.0000

 Normal termination of Gaussian 16 at Mon Feb 14 22:10:05 2022.
