 Gaussian 16, Revision B.01,
 Gaussian 16:  ES64L-G16RevB.01 20-Dec-2017

 -------------------------------------
 #p SP mp2/aug-cc-pvtz density=current
 -------------------------------------

 -----
 title
 -----
 Symbolic Z-matrix:
 Charge =  0 Multiplicity = 1

                         Standard orientation:
 ---------------------------------------------------------------------
 Center     Atomic      Atomic             Coordinates (Angstroms)
 Number     Number       Type             X           Y           Z
 ---------------------------------------------------------------------
      1          1           0       -2.236438    0.420645    0.183004
      2          8           0       -1.599467   -0.281883   -0.016086
      3          8           0       -0.400136    0.541749   -0.021182
      4          7           0        0.662765   -0.456963    0.008270
      5          8           0        1.699239    0.087396    0.007156
 ---------------------------------------------------------------------

 SCF Done:  E(RHF) =  -279.501835526     A.U. after   16 cycles
 E2 =    -0.9450996479D+00 EUMP2 =    -0.28044693517377D+03

 The electronic state is 1-A.
 Alpha  occ. eigenvalues --  -20.69109 -20.68425 -20.66017 -15.81267  -1.62403
 Alpha  occ. eigenvalues --   -1.49585  -1.25444  -0.94809  -0.77244  -0.75955
 Alpha  occ. eigenvalues --   -0.71314  -0.67866  -0.61975  -0.58865  -0.48736
 Alpha  occ. eigenvalues --   -0.47152
 Alpha virt. eigenvalues --    0.02957   0.07164   0.08592   0.10176   0.13217
 Alpha virt. eigenvalues --    0.13511   0.14386   0.15443   0.17808   0.19407
 Alpha virt. eigenvalues --    0.19911   0.20669   0.22080   0.23534   0.23722

 Mulliken charges:
               1
     1  H    0.250063
     2  O   -0.201771
     3  O   -0.146986
     4  N    0.292089
     5  O   -0.193395
 Sum of Mulliken charges =  -0.00000

 Dipole moment (field-independent basis, Debye):
    X=             -1.1979    Y=              0.7643    Z=              0.3471  Tot=              1.4628
 Quadrupole moment (field-independent basis, Debye-Ang):
   XX=            -18.1152   YY=            -23.1301   ZZ=            -21.9146
   XY=             -2.7032   XZ=             -0.9124   YZ=              0.2764

 Normal termination of Gaussian 16 at Mon Feb 14 22:14:57 2022.
