 Gaussian 16, Revision B.01,
 Gaussian 16:  ES64L-G16RevB.01 20-Dec-2017

 -------------------------------------
 #p SP mp2/aug-cc-pvtz density=current
 -------------------------------------

 -----
 title
 -----
 Symbolic Z-matrix:
 Charge =  0 Multiplicity = 1

                         Standard orientation:
 ---------------------------------------------------------------------
 Center     Atomic      Atomic             Coordinates (Angstroms)
 Number     Number       Type             X           Y           Z
 ---------------------------------------------------------------------
      1          1           0        1.547575    1.672888    0.000000
      2          8           0        1.454060    0.723478    0.000000
      3          8           0       -0.000000    0.673475    0.000000
      4          7           0       -0.261535   -0.761674   -0.000000
      5          8           0       -1.418664   -0.939599   -0.000000
 ---------------------------------------------------------------------

 SCF Done:  E(RHF) =  -279.502189197     A.U. after   14 cycles
 E2 =    -0.9443334044D+00 EUMP2 =    -0.28044652260120D+03

 The electronic state is 1-A'.
 Alpha  occ. eigenvalues --  -20.69129 -20.68459 -20.65879 -15.81315  -1.62438
 Alpha  occ. eigenvalues --   -1.49764  -1.25739  -0.94842  -0.77409  -0.76036
 Alpha  occ. eigenvalues --   -0.71215  -0.68163  -0.62091  -0.59015  -0.48574
 Alpha  occ. eigenvalues --   -0.47291
 Alpha virt. eigenvalues --    0.02991   0.07144   0.08588   0.10168   0.13384
 Alpha virt. eigenvalues --    0.13392   0.14467   0.15510   0.17804   0.19413
 Alpha virt. eigenvalues --    0.19976   0.20637   0.22076   0.23500   0.23724

 Mulliken charges:
               1
     1  H    0.237279
     2  O   -0.188646
     3  O   -0.148116
     4  N    0.292755
     5  O   -0.193271
 Sum of Mulliken charges =  -0.00000

 Dipole moment (field-independent basis, Debye):
    X=              0.5002    Y=              1.3416    Z=              0.0000  Tot=              1.4318
 Quadrupole moment (field-independent basis, Debye-Ang):
   XX=            -22.4624   YY=            -18.6735   ZZ=            -21.9914
   XY=              3.2263   XZ=              0.0000   YZ=             -0.0000

 Normal termination of Gaussian 16 at Mon Feb 14 22:10:24 2022.
