 Gaussian 16, Revision B.01,
 Gaussian 16:  ES64L-G16RevB.01 20-Dec-2017

 -------------------------------------
 #p SP mp2/aug-cc-pvtz density=current
 -------------------------------------

 -----
 title
 -----
 Symbolic Z-matrix:
 Charge =  0 Multiplicity = 1

                         Standard orientation:
 ---------------------------------------------------------------------
 Center     Atomic      Atomic             Coordinates (Angstroms)
 Number     Number       Type             X           Y           Z
 ---------------------------------------------------------------------
      1          1           0        2.248315    0.433680   -0.028952
      2          8           0        1.597721   -0.284371   -0.022386
      3          8           0        0.400648    0.541187    0.025193
      4          7           0       -0.664084   -0.455914    0.038883
      5          8           0       -1.698335    0.087899   -0.033211
 ---------------------------------------------------------------------

 SCF Done:  E(RHF) =  -279.501552707     A.U. after   16 cycles
 E2 =    -0.9449775113D+00 EUMP2 =    -0.28044653021832D+03

 The electronic state is 1-A.
 Alpha  occ. eigenvalues --  -20.69072 -20.68440 -20.66000 -15.81276  -1.62405
 Alpha  occ. eigenvalues --   -1.49571  -1.25439  -0.94806  -0.77275  -0.75915
 Alpha  occ. eigenvalues --   -0.71213  -0.67901  -0.62057  -0.58935  -0.48522
 Alpha  occ. eigenvalues --   -0.47248
 Alpha virt. eigenvalues --    0.02963   0.07153   0.08603   0.10172   0.13218
 Alpha virt. eigenvalues --    0.13560   0.14410   0.15455   0.17804   0.19410
 Alpha virt. eigenvalues --    0.19949   0.20666   0.22093   0.23437   0.23867

 Mulliken charges:
               1
     1  H    0.250373
     2  O   -0.201546
     3  O   -0.147626
     4  N    0.291617
     5  O   -0.192818
 Sum of Mulliken charges =  -0.00000

 Dipole moment (field-independent basis, Debye):
    X=              1.2152    Y=              0.7903    Z=             -0.0106  Tot=              1.4497
 Quadrupole moment (field-independent basis, Debye-Ang):
   XX=            -17.9834   YY=            -23.0931   ZZ=            -22.0161
   XY=              2.7856   XZ=             -0.1559   YZ=              0.0608

 Normal termination of Gaussian 16 at Mon Feb 14 22:15:25 2022.
