 Gaussian 16, Revision B.01,
 Gaussian 16:  ES64L-G16RevB.01 20-Dec-2017

 -------------------------------------
 #p SP mp2/aug-cc-pvtz density=current
 -------------------------------------

 -----
 title
 -----
 Symbolic Z-matrix:
 Charge =  0 Multiplicity = 1

                         Standard orientation:
 ---------------------------------------------------------------------
 Center     Atomic      Atomic             Coordinates (Angstroms)
 Number     Number       Type             X           Y           Z
 ---------------------------------------------------------------------
      1          1           0        1.544672    1.694423    0.000000
      2          8           0        1.453832    0.729715   -0.000000
      3          8           0        0.000000    0.673467    0.000000
      4          7           0       -0.255368   -0.762791   -0.000000
      5          8           0       -1.423468   -0.947542   -0.000000
 ---------------------------------------------------------------------

 SCF Done:  E(RHF) =  -279.499448297     A.U. after   14 cycles
 E2 =    -0.9470963816D+00 EUMP2 =    -0.28044654467870D+03

 The electronic state is 1-A'.
 Alpha  occ. eigenvalues --  -20.69363 -20.68381 -20.66148 -15.81456  -1.61469
 Alpha  occ. eigenvalues --   -1.49540  -1.25559  -0.94971  -0.77152  -0.75608
 Alpha  occ. eigenvalues --   -0.70960  -0.67786  -0.61793  -0.59016  -0.48617
 Alpha  occ. eigenvalues --   -0.47479
 Alpha virt. eigenvalues --    0.02931   0.06802   0.08613   0.10172   0.13379
 Alpha virt. eigenvalues --    0.13418   0.14383   0.15424   0.17806   0.19430
 Alpha virt. eigenvalues --    0.19938   0.20634   0.22041   0.23445   0.23730

 Mulliken charges:
               1
     1  H    0.250664
     2  O   -0.200643
     3  O   -0.144575
     4  N    0.290368
     5  O   -0.195814
 Sum of Mulliken charges =  -0.00000

 Dipole moment (field-independent basis, Debye):
    X=              0.5519    Y=              1.4127    Z=              0.0000  Tot=              1.5166
 Quadrupole moment (field-independent basis, Debye-Ang):
   XX=            -22.5297   YY=            -18.6157   ZZ=            -22.0301
   XY=              3.2168   XZ=              0.0000   YZ=             -0.0000

 Normal termination of Gaussian 16 at Mon Feb 14 22:11:55 2022.
