 Gaussian 16, Revision B.01,
 Gaussian 16:  ES64L-G16RevB.01 20-Dec-2017

 -------------------------------------
 #p SP mp2/aug-cc-pvtz density=current
 -------------------------------------

 -----
 title
 -----
 Symbolic Z-matrix:
 Charge =  0 Multiplicity = 1

                         Standard orientation:
 ---------------------------------------------------------------------
 Center     Atomic      Atomic             Coordinates (Angstroms)
 Number     Number       Type             X           Y           Z
 ---------------------------------------------------------------------
      1          1           0        1.577813    1.674456    0.000000
      2          8           0        1.474629    0.710990    0.000000
      3          8           0       -0.000000    0.672838    0.000000
      4          7           0       -0.273736   -0.760033   -0.000000
      5          8           0       -1.432337   -0.928107   -0.000000
 ---------------------------------------------------------------------

 SCF Done:  E(RHF) =  -279.499813430     A.U. after   14 cycles
 E2 =    -0.9467147378D+00 EUMP2 =    -0.28044652816744D+03

 The electronic state is 1-A'.
 Alpha  occ. eigenvalues --  -20.69201 -20.68464 -20.66171 -15.81322  -1.62349
 Alpha  occ. eigenvalues --   -1.48789  -1.25798  -0.94779  -0.77073  -0.75760
 Alpha  occ. eigenvalues --   -0.71006  -0.67939  -0.61854  -0.58656  -0.48877
 Alpha  occ. eigenvalues --   -0.47294
 Alpha virt. eigenvalues --    0.02959   0.07165   0.08540   0.10162   0.13286
 Alpha virt. eigenvalues --    0.13398   0.14397   0.15444   0.17830   0.19436
 Alpha virt. eigenvalues --    0.19989   0.20609   0.21641   0.22898   0.23722

 Mulliken charges:
               1
     1  H    0.251411
     2  O   -0.204033
     3  O   -0.148122
     4  N    0.293344
     5  O   -0.192600
 Sum of Mulliken charges =  -0.00000

 Dipole moment (field-independent basis, Debye):
    X=              0.5119    Y=              1.3429    Z=              0.0000  Tot=              1.4372
 Quadrupole moment (field-independent basis, Debye-Ang):
   XX=            -22.3579   YY=            -18.6901   ZZ=            -22.0382
   XY=              3.3185   XZ=             -0.0000   YZ=             -0.0000

 Normal termination of Gaussian 16 at Mon Feb 14 22:10:42 2022.
