 Gaussian 16, Revision B.01,
 Gaussian 16:  ES64L-G16RevB.01 20-Dec-2017

 -------------------------------------
 #p SP mp2/aug-cc-pvtz density=current
 -------------------------------------

 -----
 title
 -----
 Symbolic Z-matrix:
 Charge =  0 Multiplicity = 1

                         Standard orientation:
 ---------------------------------------------------------------------
 Center     Atomic      Atomic             Coordinates (Angstroms)
 Number     Number       Type             X           Y           Z
 ---------------------------------------------------------------------
      1          1           0        1.551220    1.692402   -0.000000
      2          8           0        1.454164    0.728299   -0.000000
      3          8           0        0.000000    0.681422    0.000000
      4          7           0       -0.264619   -0.753160    0.000000
      5          8           0       -1.416524   -0.962256    0.000000
 ---------------------------------------------------------------------

 SCF Done:  E(RHF) =  -279.501352085     A.U. after   14 cycles
 E2 =    -0.9451793613D+00 EUMP2 =    -0.28044653144598D+03

 The electronic state is 1-A'.
 Alpha  occ. eigenvalues --  -20.69158 -20.68487 -20.66101 -15.81224  -1.62268
 Alpha  occ. eigenvalues --   -1.49695  -1.25573  -0.94765  -0.77366  -0.75863
 Alpha  occ. eigenvalues --   -0.71149  -0.67979  -0.62109  -0.59084  -0.48600
 Alpha  occ. eigenvalues --   -0.47041
 Alpha virt. eigenvalues --    0.02950   0.07237   0.08561   0.10173   0.13405
 Alpha virt. eigenvalues --    0.13405   0.14402   0.15464   0.17808   0.19424
 Alpha virt. eigenvalues --    0.19975   0.20602   0.22081   0.23379   0.23716

 Mulliken charges:
               1
     1  H    0.250299
     2  O   -0.198030
     3  O   -0.149423
     4  N    0.289815
     5  O   -0.192661
 Sum of Mulliken charges =   0.00000

 Dipole moment (field-independent basis, Debye):
    X=              0.5028    Y=              1.3818    Z=              0.0000  Tot=              1.4704
 Quadrupole moment (field-independent basis, Debye-Ang):
   XX=            -22.4158   YY=            -18.6267   ZZ=            -22.0188
   XY=              3.2967   XZ=              0.0000   YZ=             -0.0000

 Normal termination of Gaussian 16 at Mon Feb 14 22:13:45 2022.
