 Gaussian 16, Revision B.01,
 Gaussian 16:  ES64L-G16RevB.01 20-Dec-2017

 -------------------------------------
 #p SP mp2/aug-cc-pvtz density=current
 -------------------------------------

 -----
 title
 -----
 Symbolic Z-matrix:
 Charge =  0 Multiplicity = 1

                         Standard orientation:
 ---------------------------------------------------------------------
 Center     Atomic      Atomic             Coordinates (Angstroms)
 Number     Number       Type             X           Y           Z
 ---------------------------------------------------------------------
      1          1           0        1.545218    1.707577   -0.000000
      2          8           0        1.453862    0.742918   -0.000000
      3          8           0       -0.000000    0.687448   -0.000000
      4          7           0       -0.261633   -0.779487    0.000000
      5          8           0       -1.418085   -0.961762    0.000000
 ---------------------------------------------------------------------

 SCF Done:  E(RHF) =  -279.498433859     A.U. after   14 cycles
 E2 =    -0.9481059645D+00 EUMP2 =    -0.28044653982362D+03

 The electronic state is 1-A'.
 Alpha  occ. eigenvalues --  -20.69167 -20.68559 -20.65614 -15.81790  -1.62313
 Alpha  occ. eigenvalues --   -1.49111  -1.24510  -0.95063  -0.77035  -0.75577
 Alpha  occ. eigenvalues --   -0.70689  -0.68093  -0.62192  -0.58770  -0.48185
 Alpha  occ. eigenvalues --   -0.47089
 Alpha virt. eigenvalues --    0.03049   0.06765   0.08533   0.10134   0.13377
 Alpha virt. eigenvalues --    0.13415   0.14474   0.15515   0.17894   0.19396
 Alpha virt. eigenvalues --    0.19965   0.20156   0.22160   0.23673   0.23703

 Mulliken charges:
               1
     1  H    0.249941
     2  O   -0.203736
     3  O   -0.167254
     4  N    0.300654
     5  O   -0.179606
 Sum of Mulliken charges =  -0.00000

 Dipole moment (field-independent basis, Debye):
    X=              0.3675    Y=              1.1782    Z=             -0.0000  Tot=              1.2342
 Quadrupole moment (field-independent basis, Debye-Ang):
   XX=            -22.4158   YY=            -18.4813   ZZ=            -22.0549
   XY=              3.3148   XZ=              0.0000   YZ=              0.0000

 Normal termination of Gaussian 16 at Mon Feb 14 22:11:19 2022.
