 Gaussian 16, Revision B.01,
 Gaussian 16:  ES64L-G16RevB.01 20-Dec-2017

 -------------------------------------
 #p SP mp2/aug-cc-pvtz density=current
 -------------------------------------

 -----
 title
 -----
 Symbolic Z-matrix:
 Charge =  0 Multiplicity = 1

                         Standard orientation:
 ---------------------------------------------------------------------
 Center     Atomic      Atomic             Coordinates (Angstroms)
 Number     Number       Type             X           Y           Z
 ---------------------------------------------------------------------
      1          1           0        1.553152    1.666589   -0.000000
      2          8           0        1.454251    0.702674   -0.000000
      3          8           0        0.000000    0.658580    0.000000
      4          7           0       -0.261628   -0.744723    0.000000
      5          8           0       -1.419471   -0.917945    0.000000
 ---------------------------------------------------------------------

 SCF Done:  E(RHF) =  -279.504434051     A.U. after   14 cycles
 E2 =    -0.9420832996D+00 EUMP2 =    -0.28044651735101D+03

 The electronic state is 1-A'.
 Alpha  occ. eigenvalues --  -20.69618 -20.67680 -20.66380 -15.80784  -1.62643
 Alpha  occ. eigenvalues --   -1.49989  -1.26390  -0.94589  -0.77538  -0.76307
 Alpha  occ. eigenvalues --   -0.71756  -0.67776  -0.61878  -0.59100  -0.48831
 Alpha  occ. eigenvalues --   -0.47355
 Alpha virt. eigenvalues --    0.02877   0.07573   0.08648   0.10204   0.13367
 Alpha virt. eigenvalues --    0.13408   0.14345   0.15392   0.17757   0.19420
 Alpha virt. eigenvalues --    0.19998   0.21002   0.21982   0.23402   0.23778

 Mulliken charges:
               1
     1  H    0.250496
     2  O   -0.199457
     3  O   -0.126462
     4  N    0.282307
     5  O   -0.206883
 Sum of Mulliken charges =  -0.00000

 Dipole moment (field-independent basis, Debye):
    X=              0.6517    Y=              1.5385    Z=             -0.0000  Tot=              1.6709
 Quadrupole moment (field-independent basis, Debye-Ang):
   XX=            -22.5234   YY=            -18.7473   ZZ=            -21.9651
   XY=              3.1966   XZ=              0.0000   YZ=             -0.0000

 Normal termination of Gaussian 16 at Mon Feb 14 22:11:37 2022.
