 Gaussian 16, Revision B.01,
 Gaussian 16:  ES64L-G16RevB.01 20-Dec-2017

 -------------------------------------
 #p SP mp2/aug-cc-pvtz density=current
 -------------------------------------

 -----
 title
 -----
 Symbolic Z-matrix:
 Charge =  0 Multiplicity = 1

                         Standard orientation:
 ---------------------------------------------------------------------
 Center     Atomic      Atomic             Coordinates (Angstroms)
 Number     Number       Type             X           Y           Z
 ---------------------------------------------------------------------
      1          1           0        1.553528    1.679993   -0.000000
      2          8           0        1.454267    0.716115   -0.000000
      3          8           0        0.000000    0.672564   -0.000000
      4          7           0       -0.267900   -0.761410    0.000000
      5          8           0       -1.414046   -0.932444    0.000000
 ---------------------------------------------------------------------

 SCF Done:  E(RHF) =  -279.503486008     A.U. after   14 cycles
 E2 =    -0.9430284995D+00 EUMP2 =    -0.28044651450720D+03

 The electronic state is 1-A'.
 Alpha  occ. eigenvalues --  -20.68806 -20.68480 -20.65845 -15.81110  -1.63392
 Alpha  occ. eigenvalues --   -1.49578  -1.25320  -0.94646  -0.77428  -0.76236
 Alpha  occ. eigenvalues --   -0.71443  -0.68072  -0.62274  -0.58862  -0.48419
 Alpha  occ. eigenvalues --   -0.47015
 Alpha virt. eigenvalues --    0.02995   0.07535   0.08574   0.10172   0.13373
 Alpha virt. eigenvalues --    0.13411   0.14434   0.15482   0.17848   0.19403
 Alpha virt. eigenvalues --    0.20026   0.20638   0.22120   0.23645   0.23747

 Mulliken charges:
               1
     1  H    0.249852
     2  O   -0.202561
     3  O   -0.149820
     4  N    0.292916
     5  O   -0.190388
 Sum of Mulliken charges =  -0.00000

 Dipole moment (field-independent basis, Debye):
    X=              0.4624    Y=              1.3078    Z=             -0.0000  Tot=              1.3871
 Quadrupole moment (field-independent basis, Debye-Ang):
   XX=            -22.4051   YY=            -18.6158   ZZ=            -21.9906
   XY=              3.2968   XZ=              0.0000   YZ=              0.0000

 Normal termination of Gaussian 16 at Mon Feb 14 22:12:13 2022.
