 Gaussian 16, Revision B.01,
 Gaussian 16:  ES64L-G16RevB.01 20-Dec-2017

 -------------------------------------
 #p SP mp2/aug-cc-pvtz density=current
 -------------------------------------

 -----
 title
 -----
 Symbolic Z-matrix:
 Charge =  0 Multiplicity = 1

                         Standard orientation:
 ---------------------------------------------------------------------
 Center     Atomic      Atomic             Coordinates (Angstroms)
 Number     Number       Type             X           Y           Z
 ---------------------------------------------------------------------
      1          1           0        1.520317    1.699602    0.000000
      2          8           0        1.433406    0.734532    0.000000
      3          8           0       -0.000000    0.673228    0.000000
      4          7           0       -0.249517   -0.764059   -0.000000
      5          8           0       -1.405118   -0.951659   -0.000000
 ---------------------------------------------------------------------

 SCF Done:  E(RHF) =  -279.503119546     A.U. after   14 cycles
 E2 =    -0.9434113444D+00 EUMP2 =    -0.28044653089094D+03

 The electronic state is 1-A'.
 Alpha  occ. eigenvalues --  -20.68972 -20.68393 -20.65824 -15.81241  -1.62473
 Alpha  occ. eigenvalues --   -1.50396  -1.25077  -0.94836  -0.77502  -0.76086
 Alpha  occ. eigenvalues --   -0.71375  -0.67948  -0.62239  -0.59206  -0.48151
 Alpha  occ. eigenvalues --   -0.47200
 Alpha virt. eigenvalues --    0.02966   0.07170   0.08640   0.10179   0.13394
 Alpha virt. eigenvalues --    0.13480   0.14419   0.15462   0.17820   0.19399
 Alpha virt. eigenvalues --    0.19973   0.20653   0.22243   0.23755   0.24498

 Mulliken charges:
               1
     1  H    0.249119
     2  O   -0.199291
     3  O   -0.145826
     4  N    0.289926
     5  O   -0.193928
 Sum of Mulliken charges =  -0.00000

 Dipole moment (field-independent basis, Debye):
    X=              0.5044    Y=              1.3793    Z=              0.0000  Tot=              1.4687
 Quadrupole moment (field-independent basis, Debye-Ang):
   XX=            -22.5797   YY=            -18.5424   ZZ=            -21.9819
   XY=              3.1903   XZ=              0.0000   YZ=             -0.0000

 Normal termination of Gaussian 16 at Mon Feb 14 22:11:00 2022.
