 Gaussian 16, Revision B.01,
 Gaussian 16:  ES64L-G16RevB.01 20-Dec-2017

 -------------------------------------
 #p SP mp2/aug-cc-pvtz density=current
 -------------------------------------

 -----
 title
 -----
 Symbolic Z-matrix:
 Charge =  0 Multiplicity = 1

                         Standard orientation:
 ---------------------------------------------------------------------
 Center     Atomic      Atomic             Coordinates (Angstroms)
 Number     Number       Type             X           Y           Z
 ---------------------------------------------------------------------
      1          1           0        1.547757    1.674580   -0.000000
      2          8           0        1.454060    0.723411   -0.000000
      3          8           0        0.000000    0.673420    0.000000
      4          7           0       -0.261546   -0.761727   -0.000000
      5          8           0       -1.418677   -0.939642    0.000000
 ---------------------------------------------------------------------

 SCF Done:  E(RHF) =  -279.502152980     A.U. after   14 cycles
 E2 =    -0.9444174464D+00 EUMP2 =    -0.28044657042675D+03

 The electronic state is 1-A'.
 Alpha  occ. eigenvalues --  -20.69124 -20.68455 -20.65894 -15.81311  -1.62434
 Alpha  occ. eigenvalues --   -1.49741  -1.25703  -0.94838  -0.77393  -0.76023
 Alpha  occ. eigenvalues --   -0.71211  -0.68137  -0.62085  -0.59006  -0.48568
 Alpha  occ. eigenvalues --   -0.47286
 Alpha virt. eigenvalues --    0.02987   0.07147   0.08589   0.10168   0.13386
 Alpha virt. eigenvalues --    0.13392   0.14460   0.15504   0.17806   0.19414
 Alpha virt. eigenvalues --    0.19976   0.20637   0.22077   0.23505   0.23726

 Mulliken charges:
               1
     1  H    0.238873
     2  O   -0.190233
     3  O   -0.148007
     4  N    0.292636
     5  O   -0.193269
 Sum of Mulliken charges =  -0.00000

 Dipole moment (field-independent basis, Debye):
    X=              0.5012    Y=              1.3439    Z=              0.0000  Tot=              1.4343
 Quadrupole moment (field-independent basis, Debye-Ang):
   XX=            -22.4631   YY=            -18.6668   ZZ=            -21.9936
   XY=              3.2298   XZ=              0.0000   YZ=             -0.0000

 Normal termination of Gaussian 16 at Mon Feb 14 22:09:59 2022.
