 Gaussian 16, Revision B.01,
 Gaussian 16:  ES64L-G16RevB.01 20-Dec-2017

 -------------------------------------
 #p SP mp2/aug-cc-pvtz density=current
 -------------------------------------

 -----
 title
 -----
 Symbolic Z-matrix:
 Charge =  0 Multiplicity = 1

                         Standard orientation:
 ---------------------------------------------------------------------
 Center     Atomic      Atomic             Coordinates (Angstroms)
 Number     Number       Type             X           Y           Z
 ---------------------------------------------------------------------
      1          1           0        1.545198    1.693573   -0.000000
      2          8           0        1.453860    0.728911   -0.000000
      3          8           0        0.000000    0.673412   -0.000000
      4          7           0       -0.256108   -0.762714    0.000000
      5          8           0       -1.422916   -0.946645    0.000000
 ---------------------------------------------------------------------

 SCF Done:  E(RHF) =  -279.499734486     A.U. after   14 cycles
 E2 =    -0.9468527486D+00 EUMP2 =    -0.28044658723424D+03

 The electronic state is 1-A'.
 Alpha  occ. eigenvalues --  -20.69331 -20.68387 -20.66131 -15.81436  -1.61576
 Alpha  occ. eigenvalues --   -1.49546  -1.25545  -0.94951  -0.77166  -0.75645
 Alpha  occ. eigenvalues --   -0.70984  -0.67805  -0.61824  -0.59008  -0.48607
 Alpha  occ. eigenvalues --   -0.47452
 Alpha virt. eigenvalues --    0.02935   0.06845   0.08611   0.10172   0.13381
 Alpha virt. eigenvalues --    0.13415   0.14386   0.15428   0.17808   0.19429
 Alpha virt. eigenvalues --    0.19943   0.20634   0.22046   0.23456   0.23731

 Mulliken charges:
               1
     1  H    0.250617
     2  O   -0.200753
     3  O   -0.144877
     4  N    0.290541
     5  O   -0.195528
 Sum of Mulliken charges =  -0.00000

 Dipole moment (field-independent basis, Debye):
    X=              0.5469    Y=              1.4066    Z=             -0.0000  Tot=              1.5092
 Quadrupole moment (field-independent basis, Debye-Ang):
   XX=            -22.5227   YY=            -18.6157   ZZ=            -22.0278
   XY=              3.2213   XZ=              0.0000   YZ=              0.0000

 Normal termination of Gaussian 16 at Mon Feb 14 22:11:30 2022.
