 Gaussian 16, Revision B.01,
 Gaussian 16:  ES64L-G16RevB.01 20-Dec-2017

 -------------------------------------
 #p SP mp2/aug-cc-pvtz density=current
 -------------------------------------

 -----
 title
 -----
 Symbolic Z-matrix:
 Charge =  0 Multiplicity = 1

                         Standard orientation:
 ---------------------------------------------------------------------
 Center     Atomic      Atomic             Coordinates (Angstroms)
 Number     Number       Type             X           Y           Z
 ---------------------------------------------------------------------
      1          1           0       -2.240576    0.425357    0.149650
      2          8           0       -1.599261   -0.282549   -0.013131
      3          8           0       -0.400207    0.541490   -0.017433
      4          7           0        0.663064   -0.456966    0.006856
      5          8           0        1.699359    0.087735    0.005860
 ---------------------------------------------------------------------

 SCF Done:  E(RHF) =  -279.501787095     A.U. after   16 cycles
 E2 =    -0.9450822979D+00 EUMP2 =    -0.28044686939273D+03

 The electronic state is 1-A.
 Alpha  occ. eigenvalues --  -20.69102 -20.68427 -20.66011 -15.81273  -1.62403
 Alpha  occ. eigenvalues --   -1.49582  -1.25443  -0.94809  -0.77256  -0.75943
 Alpha  occ. eigenvalues --   -0.71270  -0.67889  -0.61998  -0.58891  -0.48668
 Alpha  occ. eigenvalues --   -0.47182
 Alpha virt. eigenvalues --    0.02959   0.07165   0.08593   0.10175   0.13256
 Alpha virt. eigenvalues --    0.13494   0.14393   0.15445   0.17814   0.19411
 Alpha virt. eigenvalues --    0.19933   0.20658   0.22080   0.23537   0.23728

 Mulliken charges:
               1
     1  H    0.250094
     2  O   -0.201673
     3  O   -0.147044
     4  N    0.291971
     5  O   -0.193348
 Sum of Mulliken charges =  -0.00000

 Dipole moment (field-independent basis, Debye):
    X=             -1.2046    Y=              0.7734    Z=              0.2840  Tot=              1.4594
 Quadrupole moment (field-independent basis, Debye-Ang):
   XX=            -18.0742   YY=            -23.1178   ZZ=            -21.9463
   XY=             -2.7335   XZ=             -0.7479   YZ=              0.2284

 Normal termination of Gaussian 16 at Mon Feb 14 13:05:42 2022.
