 Gaussian 16, Revision B.01,
 Gaussian 16:  ES64L-G16RevB.01 20-Dec-2017

 -------------------------------------
 #p SP mp2/aug-cc-pvtz density=current
 -------------------------------------

 -----
 title
 -----
 Symbolic Z-matrix:
 Charge =  0 Multiplicity = 1

                         Standard orientation:
 ---------------------------------------------------------------------
 Center     Atomic      Atomic             Coordinates (Angstroms)
 Number     Number       Type             X           Y           Z
 ---------------------------------------------------------------------
      1          1           0        1.545489    1.693101   -0.000000
      2          8           0        1.453876    0.728466   -0.000000
      3          8           0        0.000000    0.673382   -0.000000
      4          7           0       -0.256518   -0.762672    0.000000
      5          8           0       -1.422609   -0.946149    0.000000
 ---------------------------------------------------------------------

 SCF Done:  E(RHF) =  -279.499890596     A.U. after   14 cycles
 E2 =    -0.9467179576D+00 EUMP2 =    -0.28044660855319D+03

 The electronic state is 1-A'.
 Alpha  occ. eigenvalues --  -20.69313 -20.68390 -20.66121 -15.81424  -1.61636
 Alpha  occ. eigenvalues --   -1.49549  -1.25538  -0.94941  -0.77173  -0.75665
 Alpha  occ. eigenvalues --   -0.70997  -0.67815  -0.61841  -0.59004  -0.48601
 Alpha  occ. eigenvalues --   -0.47438
 Alpha virt. eigenvalues --    0.02937   0.06869   0.08610   0.10172   0.13382
 Alpha virt. eigenvalues --    0.13414   0.14388   0.15429   0.17809   0.19428
 Alpha virt. eigenvalues --    0.19946   0.20635   0.22048   0.23463   0.23732

 Mulliken charges:
               1
     1  H    0.250591
     2  O   -0.200815
     3  O   -0.145045
     4  N    0.290636
     5  O   -0.195367
 Sum of Mulliken charges =  -0.00000

 Dipole moment (field-independent basis, Debye):
    X=              0.5441    Y=              1.4032    Z=             -0.0000  Tot=              1.5050
 Quadrupole moment (field-independent basis, Debye-Ang):
   XX=            -22.5188   YY=            -18.6157   ZZ=            -22.0265
   XY=              3.2239   XZ=              0.0000   YZ=             -0.0000

 Normal termination of Gaussian 16 at Mon Feb 14 13:09:57 2022.
