 Gaussian 16, Revision B.01,
 Gaussian 16:  ES64L-G16RevB.01 20-Dec-2017

 -------------------------------------
 #p SP mp2/aug-cc-pvtz density=current
 -------------------------------------

 -----
 title
 -----
 Symbolic Z-matrix:
 Charge =  0 Multiplicity = 1

                         Standard orientation:
 ---------------------------------------------------------------------
 Center     Atomic      Atomic             Coordinates (Angstroms)
 Number     Number       Type             X           Y           Z
 ---------------------------------------------------------------------
      1          1           0        1.552719    1.681320   -0.000000
      2          8           0        1.454232    0.717362   -0.000000
      3          8           0       -0.000000    0.672645   -0.000000
      4          7           0       -0.266749   -0.761544    0.000000
      5          8           0       -1.414916   -0.933821    0.000000
 ---------------------------------------------------------------------

 SCF Done:  E(RHF) =  -279.503190905     A.U. after   14 cycles
 E2 =    -0.9433965618D+00 EUMP2 =    -0.28044658746692D+03

 The electronic state is 1-A'.
 Alpha  occ. eigenvalues --  -20.68859 -20.68471 -20.65873 -15.81142  -1.63207
 Alpha  occ. eigenvalues --   -1.49579  -1.25342  -0.94675  -0.77399  -0.76177
 Alpha  occ. eigenvalues --   -0.71391  -0.68049  -0.62234  -0.58878  -0.48439
 Alpha  occ. eigenvalues --   -0.47059
 Alpha virt. eigenvalues --    0.02989   0.07467   0.08578   0.10172   0.13377
 Alpha virt. eigenvalues --    0.13408   0.14429   0.15477   0.17844   0.19406
 Alpha virt. eigenvalues --    0.20017   0.20637   0.22113   0.23626   0.23745

 Mulliken charges:
               1
     1  H    0.249928
     2  O   -0.202381
     3  O   -0.149327
     4  N    0.292716
     5  O   -0.190936
 Sum of Mulliken charges =  -0.00000

 Dipole moment (field-independent basis, Debye):
    X=              0.4710    Y=              1.3176    Z=             -0.0000  Tot=              1.3992
 Quadrupole moment (field-independent basis, Debye-Ang):
   XX=            -22.4171   YY=            -18.6158   ZZ=            -21.9942
   XY=              3.2892   XZ=             -0.0000   YZ=              0.0000

 Normal termination of Gaussian 16 at Mon Feb 14 13:09:04 2022.
