 Gaussian 16, Revision B.01,
 Gaussian 16:  ES64L-G16RevB.01 20-Dec-2017

 -------------------------------------
 #p SP mp2/aug-cc-pvtz density=current
 -------------------------------------

 -----
 title
 -----
 Symbolic Z-matrix:
 Charge =  0 Multiplicity = 1

                         Standard orientation:
 ---------------------------------------------------------------------
 Center     Atomic      Atomic             Coordinates (Angstroms)
 Number     Number       Type             X           Y           Z
 ---------------------------------------------------------------------
      1          1           0        1.514298    1.725714   -0.000000
      2          8           0        1.451578    0.758770   -0.000000
      3          8           0        0.000000    0.660225    0.000000
      4          7           0       -0.258214   -0.775524   -0.000000
      5          8           0       -1.414928   -0.956126    0.000000
 ---------------------------------------------------------------------

 SCF Done:  E(RHF) =  -279.501671208     A.U. after   14 cycles
 E2 =    -0.9449289068D+00 EUMP2 =    -0.28044660011498D+03

 The electronic state is 1-A'.
 Alpha  occ. eigenvalues --  -20.69034 -20.68470 -20.66058 -15.81339  -1.62398
 Alpha  occ. eigenvalues --   -1.49523  -1.25524  -0.94774  -0.77144  -0.75989
 Alpha  occ. eigenvalues --   -0.71153  -0.68199  -0.62092  -0.58808  -0.48506
 Alpha  occ. eigenvalues --   -0.47214
 Alpha virt. eigenvalues --    0.02963   0.07146   0.08598   0.10220   0.13375
 Alpha virt. eigenvalues --    0.13376   0.14385   0.15392   0.17833   0.19435
 Alpha virt. eigenvalues --    0.20000   0.20606   0.22064   0.23517   0.23723

 Mulliken charges:
               1
     1  H    0.252629
     2  O   -0.205167
     3  O   -0.144581
     4  N    0.288645
     5  O   -0.191526
 Sum of Mulliken charges =  -0.00000

 Dipole moment (field-independent basis, Debye):
    X=              0.4627    Y=              1.3736    Z=              0.0000  Tot=              1.4494
 Quadrupole moment (field-independent basis, Debye-Ang):
   XX=            -22.6567   YY=            -18.4353   ZZ=            -22.0138
   XY=              3.1894   XZ=              0.0000   YZ=             -0.0000

 Normal termination of Gaussian 16 at Mon Feb 14 13:09:21 2022.
