 Gaussian 16, Revision B.01,
 Gaussian 16:  ES64L-G16RevB.01 20-Dec-2017

 -------------------------------------
 #p SP mp2/aug-cc-pvtz density=current
 -------------------------------------

 -----
 title
 -----
 Symbolic Z-matrix:
 Charge =  0 Multiplicity = 1

                         Standard orientation:
 ---------------------------------------------------------------------
 Center     Atomic      Atomic             Coordinates (Angstroms)
 Number     Number       Type             X           Y           Z
 ---------------------------------------------------------------------
      1          1           0        1.525607    1.697357    0.000000
      2          8           0        1.437203    0.732423    0.000000
      3          8           0        0.000000    0.673184    0.000000
      4          7           0       -0.251741   -0.763714   -0.000000
      5          8           0       -1.407630   -0.949527   -0.000000
 ---------------------------------------------------------------------

 SCF Done:  E(RHF) =  -279.502892413     A.U. after   14 cycles
 E2 =    -0.9437088720D+00 EUMP2 =    -0.28044660128491D+03

 The electronic state is 1-A'.
 Alpha  occ. eigenvalues --  -20.68994 -20.68400 -20.65856 -15.81249  -1.62459
 Alpha  occ. eigenvalues --   -1.50242  -1.25144  -0.94830  -0.77459  -0.76054
 Alpha  occ. eigenvalues --   -0.71337  -0.67945  -0.62203  -0.59160  -0.48221
 Alpha  occ. eigenvalues --   -0.47210
 Alpha virt. eigenvalues --    0.02965   0.07170   0.08633   0.10178   0.13394
 Alpha virt. eigenvalues --    0.13466   0.14417   0.15460   0.17821   0.19402
 Alpha virt. eigenvalues --    0.19974   0.20650   0.22223   0.23752   0.24312

 Mulliken charges:
               1
     1  H    0.249327
     2  O   -0.199701
     3  O   -0.146100
     4  N    0.290276
     5  O   -0.193802
 Sum of Mulliken charges =   0.00000

 Dipole moment (field-independent basis, Debye):
    X=              0.5051    Y=              1.3759    Z=              0.0000  Tot=              1.4657
 Quadrupole moment (field-independent basis, Debye-Ang):
   XX=            -22.5594   YY=            -18.5558   ZZ=            -21.9872
   XY=              3.2026   XZ=             -0.0000   YZ=              0.0000

 Normal termination of Gaussian 16 at Mon Feb 14 13:11:07 2022.
