 Gaussian 16, Revision B.01,
 Gaussian 16:  ES64L-G16RevB.01 20-Dec-2017

 -------------------------------------
 #p SP mp2/aug-cc-pvtz density=current
 -------------------------------------

 -----
 title
 -----
 Symbolic Z-matrix:
 Charge =  0 Multiplicity = 1

                         Standard orientation:
 ---------------------------------------------------------------------
 Center     Atomic      Atomic             Coordinates (Angstroms)
 Number     Number       Type             X           Y           Z
 ---------------------------------------------------------------------
      1          1           0        1.552399    1.670395   -0.000000
      2          8           0        1.454218    0.706406   -0.000000
      3          8           0        0.000000    0.661227   -0.000000
      4          7           0       -0.261629   -0.747918    0.000000
      5          8           0       -1.419342   -0.922004    0.000000
 ---------------------------------------------------------------------

 SCF Done:  E(RHF) =  -279.503973908     A.U. after   14 cycles
 E2 =    -0.9426189918D+00 EUMP2 =    -0.28044659290022D+03

 The electronic state is 1-A'.
 Alpha  occ. eigenvalues --  -20.69521 -20.67819 -20.66310 -15.80875  -1.62586
 Alpha  occ. eigenvalues --   -1.49917  -1.26215  -0.94626  -0.77489  -0.76233
 Alpha  occ. eigenvalues --   -0.71644  -0.67805  -0.61910  -0.59073  -0.48777
 Alpha  occ. eigenvalues --   -0.47340
 Alpha virt. eigenvalues --    0.02892   0.07498   0.08639   0.10199   0.13373
 Alpha virt. eigenvalues --    0.13406   0.14356   0.15403   0.17770   0.19420
 Alpha virt. eigenvalues --    0.19994   0.20942   0.22002   0.23428   0.23770

 Mulliken charges:
               1
     1  H    0.250460
     2  O   -0.199846
     3  O   -0.130300
     4  N    0.284070
     5  O   -0.204384
 Sum of Mulliken charges =  -0.00000

 Dipole moment (field-independent basis, Debye):
    X=              0.6252    Y=              1.5063    Z=             -0.0000  Tot=              1.6309
 Quadrupole moment (field-independent basis, Debye-Ang):
   XX=            -22.5133   YY=            -18.7234   ZZ=            -21.9735
   XY=              3.2076   XZ=              0.0000   YZ=             -0.0000

 Normal termination of Gaussian 16 at Mon Feb 14 13:07:01 2022.
