 Gaussian 16, Revision B.01,
 Gaussian 16:  ES64L-G16RevB.01 20-Dec-2017

 ----------------------------------------------
 #p freq=anharm mp2/aug-cc-pvtz density=current
 ----------------------------------------------

 -----
 title
 -----
 Symbolic Z-matrix:
 Charge =  0 Multiplicity = 1

                         Standard orientation:
 ---------------------------------------------------------------------
 Center     Atomic      Atomic             Coordinates (Angstroms)
 Number     Number       Type             X           Y           Z
 ---------------------------------------------------------------------
      1          1           0        1.549112    1.687216    0.000000
      2          8           0        1.454063    0.722913    0.000000
      3          8           0        0.000000    0.673009    0.000000
      4          7           0       -0.261632   -0.762121   -0.000000
      5          8           0       -1.418774   -0.939968   -0.000000
 ---------------------------------------------------------------------

 SCF Done:  E(RHF) =  -279.501687869     A.U. after   14 cycles
 E2 =    -0.9450468885D+00 EUMP2 =    -0.28044673475774D+03
 E2 =    -0.9450468885D+00 EUMP2 =    -0.28044673475774D+03
 ******    1 imaginary frequencies (negative Signs) ******
    1 imaginary frequencies ignored.
 SCF Done:  E(RHF) =  -279.501685665     A.U. after   11 cycles
 E2 =    -0.9450495843D+00 EUMP2 =    -0.28044673524971D+03
 E2 =    -0.9450495843D+00 EUMP2 =    -0.28044673524971D+03
 SCF Done:  E(RHF) =  -279.501685665     A.U. after   11 cycles
 E2 =    -0.9450495843D+00 EUMP2 =    -0.28044673524971D+03
 E2 =    -0.9450495843D+00 EUMP2 =    -0.28044673524971D+03
 SCF Done:  E(RHF) =  -279.501686872     A.U. after   10 cycles
 E2 =    -0.9450475337D+00 EUMP2 =    -0.28044673440605D+03
 E2 =    -0.9450475337D+00 EUMP2 =    -0.28044673440605D+03
 SCF Done:  E(RHF) =  -279.501686872     A.U. after   10 cycles
 E2 =    -0.9450475337D+00 EUMP2 =    -0.28044673440605D+03
 E2 =    -0.9450475337D+00 EUMP2 =    -0.28044673440605D+03
 SCF Done:  E(RHF) =  -279.501725558     A.U. after    8 cycles
 E2 =    -0.9450087041D+00 EUMP2 =    -0.28044673426224D+03
 E2 =    -0.9450087041D+00 EUMP2 =    -0.28044673426224D+03
 SCF Done:  E(RHF) =  -279.501647022     A.U. after    8 cycles
 E2 =    -0.9450866513D+00 EUMP2 =    -0.28044673367334D+03
 E2 =    -0.9450866513D+00 EUMP2 =    -0.28044673367334D+03
 SCF Done:  E(RHF) =  -279.501903667     A.U. after    9 cycles
 E2 =    -0.9448306679D+00 EUMP2 =    -0.28044673433503D+03
 E2 =    -0.9448306679D+00 EUMP2 =    -0.28044673433503D+03
 SCF Done:  E(RHF) =  -279.501468345     A.U. after    9 cycles
 E2 =    -0.9452640727D+00 EUMP2 =    -0.28044673241784D+03
 E2 =    -0.9452640727D+00 EUMP2 =    -0.28044673241784D+03
 SCF Done:  E(RHF) =  -279.501693494     A.U. after    9 cycles
 E2 =    -0.9450369570D+00 EUMP2 =    -0.28044673045148D+03
 E2 =    -0.9450369570D+00 EUMP2 =    -0.28044673045148D+03
 SCF Done:  E(RHF) =  -279.501672367     A.U. after    9 cycles
 E2 =    -0.9450583557D+00 EUMP2 =    -0.28044673072238D+03
 E2 =    -0.9450583557D+00 EUMP2 =    -0.28044673072238D+03
 SCF Done:  E(RHF) =  -279.501406228     A.U. after    9 cycles
 E2 =    -0.9453210017D+00 EUMP2 =    -0.28044672722997D+03
 E2 =    -0.9453210017D+00 EUMP2 =    -0.28044672722997D+03
 SCF Done:  E(RHF) =  -279.501954547     A.U. after    9 cycles
 E2 =    -0.9447750904D+00 EUMP2 =    -0.28044672963717D+03
 E2 =    -0.9447750904D+00 EUMP2 =    -0.28044672963717D+03
 SCF Done:  E(RHF) =  -279.501602490     A.U. after    9 cycles
 E2 =    -0.9451203563D+00 EUMP2 =    -0.28044672284673D+03
 E2 =    -0.9451203563D+00 EUMP2 =    -0.28044672284673D+03
 SCF Done:  E(RHF) =  -279.501739270     A.U. after    9 cycles
 E2 =    -0.9449819800D+00 EUMP2 =    -0.28044672124999D+03
 E2 =    -0.9449819800D+00 EUMP2 =    -0.28044672124999D+03
 SCF Done:  E(RHF) =  -279.502298220     A.U. after   10 cycles
 E2 =    -0.9444144472D+00 EUMP2 =    -0.28044671266684D+03
 E2 =    -0.9444144472D+00 EUMP2 =    -0.28044671266684D+03
 SCF Done:  E(RHF) =  -279.501035623     A.U. after   10 cycles
 E2 =    -0.9456831992D+00 EUMP2 =    -0.28044671882217D+03
 E2 =    -0.9456831992D+00 EUMP2 =    -0.28044671882217D+03
 SCF Done:  E(RHF) =  -279.502073275     A.U. after    9 cycles
 E2 =    -0.9445625842D+00 EUMP2 =    -0.28044663585909D+03
 E2 =    -0.9445625842D+00 EUMP2 =    -0.28044663585909D+03
 SCF Done:  E(RHF) =  -279.501107585     A.U. after    9 cycles
 E2 =    -0.9455330312D+00 EUMP2 =    -0.28044664061632D+03
 E2 =    -0.9455330312D+00 EUMP2 =    -0.28044664061632D+03

 Alpha  occ. eigenvalues --  -20.69060 -20.68410 -20.66076 -15.81261  -1.62381
 Alpha  occ. eigenvalues --   -1.49457  -1.25239  -0.94784  -0.77201  -0.75833
 Alpha  occ. eigenvalues --   -0.71157  -0.67774  -0.62016  -0.58899  -0.48486
 Alpha  occ. eigenvalues --   -0.47222
 Alpha virt. eigenvalues --    0.02943   0.07183   0.08599   0.10174   0.13397
 Alpha virt. eigenvalues --    0.13403   0.14363   0.15417   0.17840   0.19420
 Alpha virt. eigenvalues --    0.19984   0.20636   0.22087   0.23576   0.23748

 Mulliken charges:
               1
     1  H    0.258445
     2  O   -0.209737
     3  O   -0.146529
     4  N    0.291078
     5  O   -0.193256
 Sum of Mulliken charges =  -0.00000

 Dipole moment (field-independent basis, Debye):
    X=              0.5136    Y=              1.3736    Z=             -0.0000  Tot=              1.4665
 Quadrupole moment (field-independent basis, Debye-Ang):
   XX=            -22.4734   YY=            -18.5769   ZZ=            -22.0230
   XY=              3.2756   XZ=             -0.0000   YZ=             -0.0000

  Exact polarizability:  34.045   9.516  30.393  -0.000  -0.000  17.952
 Approx polarizability:  29.032   5.116  23.628   0.000   0.000  15.538

 ******    1 imaginary frequencies (negative Signs) ******

                      1                      2                      3
                     A"                     A"                     A'
 Frequencies --   -269.2423               229.0178               341.3305
 Red. masses --      1.1389                10.5205                 8.6141
 Frc consts  --      0.0486                 0.3251                 0.5913
 IR Inten    --    124.7315                 0.7748                 4.5994

                      4                      5                      6
                     A'                     A'                     A'
 Frequencies --    451.6582               785.3965               967.2663
 Red. masses --     12.3158                12.9188                15.3946
 Frc consts  --      1.4802                 4.6952                 8.4862
 IR Inten    --    199.7300               170.7689                22.6396

                      7                      8                      9
                     A'                     A'                     A'
 Frequencies --   1371.2486              1677.3373              3778.7020
 Red. masses --      1.1334                13.2085                 1.0675
 Frc consts  --      1.2556                21.8950                 8.9809
 IR Inten    --    153.0282               140.4659                82.5404

 - Thermochemistry -
 -------------------
 Temperature   298.150 Kelvin.  Pressure   1.00000 Atm.
 Atom     1 has atomic number  1 and mass   1.00783

 Molecular mass:    62.99564 amu.
 Principal axes and moments of inertia in atomic units:
                           1         2         3
     Eigenvalues --    32.84033 360.14660 392.98694
           X            0.81015  -0.58622   0.00000
           Y            0.58622   0.81015   0.00000
           Z           -0.00000   0.00000   1.00000
 This molecule is an asymmetric top.
 Rotational symmetry number  1.
 Rotational temperatures (Kelvin)      2.63743     0.24050     0.22040
 Rotational constants (GHZ):          54.95502     5.01113     4.59237
    1 imaginary frequencies ignored.
 Zero-point vibrational energy      57432.5 (Joules/Mol)
                                   13.72669 (Kcal/Mol)
 Warning -- explicit consideration of   3 degrees of freedom as
           vibrations may cause significant error
 Vibrational temperatures:    329.51   491.10   649.84  1130.01  1391.68
          (Kelvin)           1972.92  2413.31  5436.71

 Zero-point correction=                           0.021875 (Hartree/Particle)
 Thermal correction to Energy=                    0.025993
 Thermal correction to Enthalpy=                  0.026937
 Thermal correction to Gibbs Free Energy=        -0.004247
 Sum of electronic and zero-point Energies=           -280.424860
 Sum of electronic and thermal Energies=              -280.420742
 Sum of electronic and thermal Enthalpies=            -280.419798
 Sum of electronic and thermal Free Energies=         -280.450982

                     E (Thermal)             CV                S
                      KCal/Mol        Cal/Mol-Kelvin    Cal/Mol-Kelvin
 Total                   16.311             11.954             65.633
 Electronic               0.000              0.000              0.000
 Translational            0.889              2.981             38.341
 Rotational               0.889              2.981             23.057
 Vibrational             14.533              5.993              4.235
 Vibration     1          0.652              1.797              1.887
 Vibration     2          0.721              1.593              1.206
 Vibration     3          0.810              1.357              0.791

                       ! Non-Optimized Parameters !

 1\1\GINC-N2398\Freq\RMP2-FC\Aug-CC-pVTZ\H1N1O3\CGAVINH\28-Feb-2022\1\\
 #p freq=anharm mp2/aug-cc-pvtz density=current\\title\\0,1\H\O,1,r1\O,
 2,r2,1,a1\N,3,r3,2,a2,1,d1,0\O,4,r4,3,a3,2,d2,0\\r1=0.96897556\r2=1.45
 491931\r3=1.45878406\r4=1.17072885\a1=97.59494903\a2=102.29752444\a3=1
 09.06955123\d1=180.\d2=180.\\Version=ES64L-G16RevB.01\State=1-A'\HF=-2
 79.5016879\MP2=-280.4467348\RMSD=3.790e-09\RMSF=1.685e-04\ZeroPoint=0.
 0218749\Thermal=0.0259927\Dipole=-0.1464888,0.,-0.5523993\DipoleDeriv=
 0.2663685,0.,0.0482902,0.,0.3555537,0.,0.0821419,0.,0.2755805,-0.32808

 Normal termination of Gaussian 16 at Mon Feb 28 02:36:08 2022.
