 Gaussian 16, Revision B.01,
 Gaussian 16:  ES64L-G16RevB.01 20-Dec-2017

 -------------------------------------
 #p SP mp2/aug-cc-pvtz density=current
 -------------------------------------

 -----
 title
 -----
 Symbolic Z-matrix:
 Charge =  0 Multiplicity = 1

                         Standard orientation:
 ---------------------------------------------------------------------
 Center     Atomic      Atomic             Coordinates (Angstroms)
 Number     Number       Type             X           Y           Z
 ---------------------------------------------------------------------
      1          1           0        1.552406    1.681834    0.000000
      2          8           0        1.454218    0.717846    0.000000
      3          8           0        0.000000    0.672676   -0.000000
      4          7           0       -0.266303   -0.761595    0.000000
      5          8           0       -1.415253   -0.934355   -0.000000
 ---------------------------------------------------------------------

 SCF Done:  E(RHF) =  -279.503072193     A.U. after   14 cycles
 E2 =    -0.9435395317D+00 EUMP2 =    -0.28044661172468D+03

 The electronic state is 1-A'.
 Alpha  occ. eigenvalues --  -20.68879 -20.68467 -20.65884 -15.81154  -1.63135
 Alpha  occ. eigenvalues --   -1.49580  -1.25351  -0.94687  -0.77388  -0.76154
 Alpha  occ. eigenvalues --   -0.71371  -0.68040  -0.62218  -0.58883  -0.48446
 Alpha  occ. eigenvalues --   -0.47076
 Alpha virt. eigenvalues --    0.02987   0.07441   0.08579   0.10172   0.13379
 Alpha virt. eigenvalues --    0.13407   0.14427   0.15475   0.17842   0.19407
 Alpha virt. eigenvalues --    0.20014   0.20637   0.22110   0.23619   0.23744

 Mulliken charges:
               1
     1  H    0.249957
     2  O   -0.202311
     3  O   -0.149137
     4  N    0.292636
     5  O   -0.191146
 Sum of Mulliken charges =  -0.00000

 Dipole moment (field-independent basis, Debye):
    X=              0.4743    Y=              1.3214    Z=             -0.0000  Tot=              1.4039
 Quadrupole moment (field-independent basis, Debye-Ang):
   XX=            -22.4217   YY=            -18.6158   ZZ=            -21.9956
   XY=              3.2863   XZ=             -0.0000   YZ=              0.0000

 Normal termination of Gaussian 16 at Mon Feb 14 22:11:36 2022.
