 Gaussian 16, Revision B.01,
 Gaussian 16:  ES64L-G16RevB.01 20-Dec-2017

 -------------------------------------
 #p SP mp2/aug-cc-pvtz density=current
 -------------------------------------

 -----
 title
 -----
 Symbolic Z-matrix:
 Charge =  0 Multiplicity = 1

                         Standard orientation:
 ---------------------------------------------------------------------
 Center     Atomic      Atomic             Coordinates (Angstroms)
 Number     Number       Type             X           Y           Z
 ---------------------------------------------------------------------
      1          1           0        1.547745    1.683006    0.000000
      2          8           0        1.453995    0.718577    0.000000
      3          8           0       -0.000000    0.666715    0.000000
      4          7           0       -0.259700   -0.768767   -0.000000
      5          8           0       -1.420225   -0.922996   -0.000000
 ---------------------------------------------------------------------

 SCF Done:  E(RHF) =  -279.501645014     A.U. after   14 cycles
 E2 =    -0.9449755447D+00 EUMP2 =    -0.28044662055880D+03

 The electronic state is 1-A'.
 Alpha  occ. eigenvalues --  -20.69036 -20.68385 -20.65917 -15.81326  -1.62509
 Alpha  occ. eigenvalues --   -1.49481  -1.25338  -0.94840  -0.77209  -0.75961
 Alpha  occ. eigenvalues --   -0.71204  -0.67904  -0.61996  -0.58832  -0.48463
 Alpha  occ. eigenvalues --   -0.47397
 Alpha virt. eigenvalues --    0.02973   0.07114   0.08618   0.10169   0.13388
 Alpha virt. eigenvalues --    0.13388   0.14414   0.15444   0.17839   0.19412
 Alpha virt. eigenvalues --    0.19986   0.20659   0.22079   0.23666   0.23755

 Mulliken charges:
               1
     1  H    0.250184
     2  O   -0.204311
     3  O   -0.145355
     4  N    0.293187
     5  O   -0.193705
 Sum of Mulliken charges =  -0.00000

 Dipole moment (field-independent basis, Debye):
    X=              0.5113    Y=              1.3440    Z=              0.0000  Tot=              1.4380
 Quadrupole moment (field-independent basis, Debye-Ang):
   XX=            -22.5088   YY=            -18.6079   ZZ=            -22.0041
   XY=              3.2253   XZ=             -0.0000   YZ=              0.0000

 Normal termination of Gaussian 16 at Mon Feb 14 22:13:26 2022.
