 Gaussian 16, Revision B.01,
 Gaussian 16:  ES64L-G16RevB.01 20-Dec-2017

 -------------------------------------
 #p SP mp2/aug-cc-pvtz density=current
 -------------------------------------

 -----
 title
 -----
 Symbolic Z-matrix:
 Charge =  0 Multiplicity = 1

                         Standard orientation:
 ---------------------------------------------------------------------
 Center     Atomic      Atomic             Coordinates (Angstroms)
 Number     Number       Type             X           Y           Z
 ---------------------------------------------------------------------
      1          1           0        1.546196    1.702416   -0.000000
      2          8           0        1.453914    0.737845   -0.000000
      3          8           0        0.000000    0.683770   -0.000000
      4          7           0       -0.261633   -0.775068    0.000000
      5          8           0       -1.418260   -0.956233    0.000000
 ---------------------------------------------------------------------

 SCF Done:  E(RHF) =  -279.499304201     A.U. after   14 cycles
 E2 =    -0.9473191839D+00 EUMP2 =    -0.28044662338498D+03

 The electronic state is 1-A'.
 Alpha  occ. eigenvalues --  -20.68980 -20.68694 -20.65712 -15.81660  -1.62323
 Alpha  occ. eigenvalues --   -1.49233  -1.24745  -0.94995  -0.77096  -0.75659
 Alpha  occ. eigenvalues --   -0.70805  -0.68055  -0.62157  -0.58815  -0.48273
 Alpha  occ. eigenvalues --   -0.47135
 Alpha virt. eigenvalues --    0.03027   0.06867   0.08549   0.10144   0.13382
 Alpha virt. eigenvalues --    0.13411   0.14457   0.15499   0.17877   0.19405
 Alpha virt. eigenvalues --    0.19969   0.20291   0.22142   0.23642   0.23712

 Mulliken charges:
               1
     1  H    0.250030
     2  O   -0.203190
     3  O   -0.162205
     4  N    0.298445
     5  O   -0.183081
 Sum of Mulliken charges =  -0.00000

 Dipole moment (field-independent basis, Debye):
    X=              0.4030    Y=              1.2251    Z=             -0.0000  Tot=              1.2897
 Quadrupole moment (field-independent basis, Debye-Ang):
   XX=            -22.4293   YY=            -18.5158   ZZ=            -22.0436
   XY=              3.2999   XZ=              0.0000   YZ=              0.0000

 Normal termination of Gaussian 16 at Mon Feb 14 22:10:41 2022.
