 Gaussian 16, Revision B.01,
 Gaussian 16:  ES64L-G16RevB.01 20-Dec-2017

 -------------------------------------
 #p SP mp2/aug-cc-pvtz density=current
 -------------------------------------

 -----
 title
 -----
 Symbolic Z-matrix:
 Charge =  0 Multiplicity = 1

                         Standard orientation:
 ---------------------------------------------------------------------
 Center     Atomic      Atomic             Coordinates (Angstroms)
 Number     Number       Type             X           Y           Z
 ---------------------------------------------------------------------
      1          1           0        1.516325    1.691916   -0.000000
      2          8           0        1.453989    0.724947   -0.000000
      3          8           0       -0.000000    0.672929   -0.000000
      4          7           0       -0.259546   -0.762580    0.000000
      5          8           0       -1.416427   -0.942109    0.000000
 ---------------------------------------------------------------------

 SCF Done:  E(RHF) =  -279.501305861     A.U. after   14 cycles
 E2 =    -0.9453180297D+00 EUMP2 =    -0.28044662389115D+03

 The electronic state is 1-A'.
 Alpha  occ. eigenvalues --  -20.69068 -20.68427 -20.66069 -15.81280  -1.62412
 Alpha  occ. eigenvalues --   -1.49691  -1.25413  -0.94817  -0.77374  -0.75798
 Alpha  occ. eigenvalues --   -0.71201  -0.67884  -0.62079  -0.59114  -0.48546
 Alpha  occ. eigenvalues --   -0.47253
 Alpha virt. eigenvalues --    0.02984   0.07159   0.08593   0.10165   0.13386
 Alpha virt. eigenvalues --    0.13407   0.14412   0.15463   0.17820   0.19398
 Alpha virt. eigenvalues --    0.19964   0.20641   0.22071   0.23534   0.23736

 Mulliken charges:
               1
     1  H    0.252912
     2  O   -0.201819
     3  O   -0.148667
     4  N    0.290994
     5  O   -0.193419
 Sum of Mulliken charges =  -0.00000

 Dipole moment (field-independent basis, Debye):
    X=              0.4651    Y=              1.3570    Z=             -0.0000  Tot=              1.4345
 Quadrupole moment (field-independent basis, Debye-Ang):
   XX=            -22.6234   YY=            -18.5978   ZZ=            -22.0072
   XY=              3.1447   XZ=             -0.0000   YZ=              0.0000

 Normal termination of Gaussian 16 at Mon Feb 14 22:12:13 2022.
