 Gaussian 16, Revision B.01,
 Gaussian 16:  ES64L-G16RevB.01 20-Dec-2017

 -------------------------------------
 #p SP mp2/aug-cc-pvtz density=current
 -------------------------------------

 -----
 title
 -----
 Symbolic Z-matrix:
 Charge =  0 Multiplicity = 1

                         Standard orientation:
 ---------------------------------------------------------------------
 Center     Atomic      Atomic             Coordinates (Angstroms)
 Number     Number       Type             X           Y           Z
 ---------------------------------------------------------------------
      1          1           0        1.590411    1.679745    0.000000
      2          8           0        1.454152    0.720398    0.000000
      3          8           0       -0.000000    0.673157    0.000000
      4          7           0       -0.264260   -0.761492   -0.000000
      5          8           0       -1.421726   -0.937218   -0.000000
 ---------------------------------------------------------------------

 SCF Done:  E(RHF) =  -279.501797510     A.U. after   14 cycles
 E2 =    -0.9447518781D+00 EUMP2 =    -0.28044654938848D+03

 The electronic state is 1-A'.
 Alpha  occ. eigenvalues --  -20.69121 -20.68438 -20.65896 -15.81293  -1.62397
 Alpha  occ. eigenvalues --   -1.49433  -1.25473  -0.94801  -0.77170  -0.76068
 Alpha  occ. eigenvalues --   -0.71157  -0.67993  -0.62004  -0.58717  -0.48493
 Alpha  occ. eigenvalues --   -0.47250
 Alpha virt. eigenvalues --    0.02938   0.07174   0.08595   0.10180   0.13371
 Alpha virt. eigenvalues --    0.13407   0.14411   0.15441   0.17833   0.19440
 Alpha virt. eigenvalues --    0.20001   0.20624   0.22090   0.23539   0.23740

 Mulliken charges:
               1
     1  H    0.247346
     2  O   -0.201801
     3  O   -0.145263
     4  N    0.292694
     5  O   -0.192976
 Sum of Mulliken charges =  -0.00000

 Dipole moment (field-independent basis, Debye):
    X=              0.5614    Y=              1.3622    Z=              0.0000  Tot=              1.4733
 Quadrupole moment (field-independent basis, Debye-Ang):
   XX=            -22.2672   YY=            -18.6488   ZZ=            -22.0144
   XY=              3.3914   XZ=              0.0000   YZ=             -0.0000

 Normal termination of Gaussian 16 at Mon Feb 14 22:12:18 2022.
