 Gaussian 16, Revision B.01,
 Gaussian 16:  ES64L-G16RevB.01 20-Dec-2017

 -------------------------------------
 #p SP mp2/aug-cc-pvtz density=current
 -------------------------------------

 -----
 title
 -----
 Symbolic Z-matrix:
 Charge =  0 Multiplicity = 1

                         Standard orientation:
 ---------------------------------------------------------------------
 Center     Atomic      Atomic             Coordinates (Angstroms)
 Number     Number       Type             X           Y           Z
 ---------------------------------------------------------------------
      1          1           0        1.547413    1.681841   -0.000000
      2          8           0        1.453978    0.717381   -0.000000
      3          8           0        0.000000    0.665044    0.000000
      4          7           0       -0.259231   -0.770522    0.000000
      5          8           0       -1.420577   -0.918449    0.000000
 ---------------------------------------------------------------------

 SCF Done:  E(RHF) =  -279.501590417     A.U. after   14 cycles
 E2 =    -0.9449606718D+00 EUMP2 =    -0.28044655108838D+03

 The electronic state is 1-A'.
 Alpha  occ. eigenvalues --  -20.69022 -20.68374 -20.65895 -15.81337  -1.62537
 Alpha  occ. eigenvalues --   -1.49456  -1.25311  -0.94849  -0.77190  -0.75973
 Alpha  occ. eigenvalues --   -0.71211  -0.67895  -0.61982  -0.58802  -0.48447
 Alpha  occ. eigenvalues --   -0.47435
 Alpha virt. eigenvalues --    0.02975   0.07100   0.08625   0.10168   0.13386
 Alpha virt. eigenvalues --    0.13386   0.14416   0.15442   0.17843   0.19410
 Alpha virt. eigenvalues --    0.19987   0.20664   0.22078   0.23699   0.23760

 Mulliken charges:
               1
     1  H    0.250156
     2  O   -0.205042
     3  O   -0.144859
     4  N    0.293571
     5  O   -0.193825
 Sum of Mulliken charges =  -0.00000

 Dipole moment (field-independent basis, Debye):
    X=              0.5119    Y=              1.3394    Z=             -0.0000  Tot=              1.4339
 Quadrupole moment (field-independent basis, Debye-Ang):
   XX=            -22.5194   YY=            -18.6059   ZZ=            -22.0025
   XY=              3.2171   XZ=              0.0000   YZ=              0.0000

 Normal termination of Gaussian 16 at Mon Feb 14 22:13:50 2022.
