 Gaussian 16, Revision B.01,
 Gaussian 16:  ES64L-G16RevB.01 20-Dec-2017

 -------------------------------------
 #p SP mp2/aug-cc-pvtz density=current
 -------------------------------------

 -----
 title
 -----
 Symbolic Z-matrix:
 Charge =  0 Multiplicity = 1

                         Standard orientation:
 ---------------------------------------------------------------------
 Center     Atomic      Atomic             Coordinates (Angstroms)
 Number     Number       Type             X           Y           Z
 ---------------------------------------------------------------------
      1          1           0        2.237816    0.422219    0.172626
      2          8           0        1.599399   -0.282105   -0.015165
      3          8           0        0.400160    0.541662   -0.020024
      4          7           0       -0.662864   -0.456964    0.007837
      5          8           0       -1.699279    0.087509    0.006753
 ---------------------------------------------------------------------

 SCF Done:  E(RHF) =  -279.501819469     A.U. after   16 cycles
 E2 =    -0.9450938906D+00 EUMP2 =    -0.28044691335982D+03

 The electronic state is 1-A.
 Alpha  occ. eigenvalues --  -20.69106 -20.68426 -20.66015 -15.81269  -1.62403
 Alpha  occ. eigenvalues --   -1.49584  -1.25444  -0.94809  -0.77248  -0.75951
 Alpha  occ. eigenvalues --   -0.71299  -0.67874  -0.61982  -0.58874  -0.48714
 Alpha  occ. eigenvalues --   -0.47162
 Alpha virt. eigenvalues --    0.02958   0.07164   0.08592   0.10176   0.13229
 Alpha virt. eigenvalues --    0.13506   0.14388   0.15444   0.17810   0.19409
 Alpha virt. eigenvalues --    0.19918   0.20665   0.22080   0.23535   0.23724

 Mulliken charges:
               1
     1  H    0.250070
     2  O   -0.201734
     3  O   -0.147005
     4  N    0.292049
     5  O   -0.193379
 Sum of Mulliken charges =  -0.00000

 Dipole moment (field-independent basis, Debye):
    X=              1.2002    Y=              0.7674    Z=              0.3275  Tot=              1.4617
 Quadrupole moment (field-independent basis, Debye-Ang):
   XX=            -18.1016   YY=            -23.1260   ZZ=            -21.9252
   XY=              2.7133   XZ=              0.8614   YZ=              0.2616

 Normal termination of Gaussian 16 at Mon Feb 14 22:14:18 2022.
