 Gaussian 16, Revision B.01,
 Gaussian 16:  ES64L-G16RevB.01 20-Dec-2017

 -------------------------------------
 #p SP mp2/aug-cc-pvtz density=current
 -------------------------------------

 -----
 title
 -----
 Symbolic Z-matrix:
 Charge =  0 Multiplicity = 1

                         Standard orientation:
 ---------------------------------------------------------------------
 Center     Atomic      Atomic             Coordinates (Angstroms)
 Number     Number       Type             X           Y           Z
 ---------------------------------------------------------------------
      1          1           0        1.586357    1.642726   -0.000000
      2          8           0        1.454910    0.682707   -0.000000
      3          8           0       -0.000000    0.687826   -0.000000
      4          7           0       -0.264386   -0.746800    0.000000
      5          8           0       -1.421867   -0.922425    0.000000
 ---------------------------------------------------------------------

 SCF Done:  E(RHF) =  -279.501291597     A.U. after   14 cycles
 E2 =    -0.9452567129D+00 EUMP2 =    -0.28044654831006D+03

 The electronic state is 1-A'.
 Alpha  occ. eigenvalues --  -20.69137 -20.68384 -20.65928 -15.81220  -1.62411
 Alpha  occ. eigenvalues --   -1.49634  -1.25338  -0.94851  -0.77444  -0.75831
 Alpha  occ. eigenvalues --   -0.71210  -0.67608  -0.61988  -0.59093  -0.48538
 Alpha  occ. eigenvalues --   -0.47292
 Alpha virt. eigenvalues --    0.02962   0.07193   0.08591   0.10116   0.13413
 Alpha virt. eigenvalues --    0.13419   0.14433   0.15516   0.17816   0.19391
 Alpha virt. eigenvalues --    0.19961   0.20637   0.22115   0.23554   0.23756

 Mulliken charges:
               1
     1  H    0.247217
     2  O   -0.196910
     3  O   -0.150494
     4  N    0.295216
     5  O   -0.195029
 Sum of Mulliken charges =  -0.00000

 Dipole moment (field-independent basis, Debye):
    X=              0.5588    Y=              1.3425    Z=             -0.0000  Tot=              1.4542
 Quadrupole moment (field-independent basis, Debye-Ang):
   XX=            -22.2540   YY=            -18.8248   ZZ=            -22.0063
   XY=              3.3140   XZ=             -0.0000   YZ=              0.0000

 Normal termination of Gaussian 16 at Mon Feb 14 22:13:13 2022.
